# vtk DataFile Version 3.0

ASCII
DATASET STRUCTURED_GRID
DIMENSIONS 2 33 1
POINTS 66 DOUBLE
0 0 0.0
0.012 0 0.0
0 0.000375 0.0
0.012 0.000375 0.0
0 0.00075 0.0
0.012 0.00075 0.0
0 0.001125 0.0
0.012 0.001125 0.0
0 0.0015 0.0
0.012 0.0015 0.0
0 0.001875 0.0
0.012 0.001875 0.0
0 0.00225 0.0
0.012 0.00225 0.0
0 0.002625 0.0
0.012 0.002625 0.0
0 0.003 0.0
0.012 0.003 0.0
0 0.003375 0.0
0.012 0.003375 0.0
0 0.00375 0.0
0.012 0.00375 0.0
0 0.004125 0.0
0.012 0.004125 0.0
0 0.0045 0.0
0.012 0.0045 0.0
0 0.004875 0.0
0.012 0.004875 0.0
0 0.00525 0.0
0.012 0.00525 0.0
0 0.005625 0.0
0.012 0.005625 0.0
0 0.006 0.0
0.012 0.006 0.0
0 0.006375 0.0
0.012 0.006375 0.0
0 0.00675 0.0
0.012 0.00675 0.0
0 0.007125 0.0
0.012 0.007125 0.0
0 0.0075 0.0
0.012 0.0075 0.0
0 0.007875 0.0
0.012 0.007875 0.0
0 0.00825 0.0
0.012 0.00825 0.0
0 0.008625 0.0
0.012 0.008625 0.0
0 0.009 0.0
0.012 0.009 0.0
0 0.009375 0.0
0.012 0.009375 0.0
0 0.00975 0.0
0.012 0.00975 0.0
0 0.010125 0.0
0.012 0.010125 0.0
0 0.0105 0.0
0.012 0.0105 0.0
0 0.010875 0.0
0.012 0.010875 0.0
0 0.01125 0.0
0.012 0.01125 0.0
0 0.011625 0.0
0.012 0.011625 0.0
0 0.012 0.0
0.012 0.012 0.0
CELL_DATA 32
SCALARS Fluid_Pressure double
LOOKUP_TABLE default
9.23952e+06
9.23581e+06
9.23199e+06
9.22805e+06
9.22399e+06
9.21982e+06
9.21553e+06
9.21109e+06
8.87105e+06
8.63128e+06
8.45939e+06
8.33471e+06
8.24363e+06
8.17687e+06
8.12794e+06
8.09213e+06
8.06602e+06
8.04706e+06
8.03337e+06
8.02352e+06
8.01649e+06
8.01149e+06
8.00797e+06
8.00549e+06
8.00376e+06
8.00255e+06
8.00172e+06
8.00114e+06
8.00073e+06
8.00044e+06
8.00021e+06
8e+06
SCALARS Fluid_Pressure_Exact double
LOOKUP_TABLE default
1.28958e+07
1.27404e+07
1.2585e+07
1.24296e+07
1.22741e+07
1.21187e+07
1.19633e+07
1.18079e+07
1.16524e+07
1.1497e+07
1.13416e+07
1.11862e+07
1.10308e+07
1.08753e+07
1.07199e+07
1.05645e+07
1.04091e+07
1.02536e+07
1.00982e+07
9.94279e+06
9.78737e+06
9.63194e+06
9.47652e+06
9.3211e+06
9.16567e+06
9.01025e+06
8.85483e+06
8.6994e+06
8.54398e+06
8.38856e+06
8.23313e+06
8.07771e+06
VECTORS FluidFlux double
0 3.78984e-09 0.0
0 3.90932e-09 0.0
0 4.02909e-09 0.0
0 4.14936e-09 0.0
0 4.27029e-09 0.0
0 4.39204e-09 0.0
0 4.51469e-09 0.0
0 3.85653e-09 0.0
0 2.66794e-09 0.0
0 1.88452e-09 0.0
0 1.35265e-09 0.0
0 9.81462e-10 0.0
0 7.16546e-10 0.0
0 5.24436e-10 0.0
0 3.83731e-10 0.0
0 2.80155e-10 0.0
0 2.03809e-10 0.0
0 1.47608e-10 0.0
0 1.06365e-10 0.0
0 7.62285e-11 0.0
0 5.43215e-11 0.0
0 3.84866e-11 0.0
0 2.71104e-11 0.0
0 1.899e-11 0.0
0 1.3234e-11 0.0
0 9.18606e-12 0.0
0 6.36737e-12 0.0
0 4.43258e-12 0.0
0 3.13674e-12 0.0
0 2.31098e-12 0.0
0 1.84505e-12 0.0
0 1.69102e-12 0.0
SCALARS Porosity double
LOOKUP_TABLE default
0.16
0.16
0.16
0.16
0.16
0.16
0.16
0.16
0.16
0.16
0.16
0.16
0.16
0.16
0.16
0.16
0.16
0.16
0.16
0.16
0.16
0.16
0.16
0.16
0.16
0.16
0.16
0.16
0.16
0.16
0.16
0.16
SCALARS Cell_Number double
LOOKUP_TABLE default
0
1
2
3
4
5
6
7
8
9
10
11
12
13
14
15
16
17
18
19
20
21
22
23
24
25
26
27
28
29
30
31
VECTORS Permeability double
1 0.694797 0.0
1 0.389573 0.0
1 0.38953 0.0
1 0.389485 0.0
1 0.38944 0.0
1 0.389393 0.0
1 0.388435 0.0
1 0.19548 0.0
1 0.00344934 0.0
1 0.00343227 0.0
1 0.00341998 0.0
1 0.00341104 0.0
1 0.00340451 0.0
1 0.00339974 0.0
1 0.00339625 0.0
1 0.00339371 0.0
1 0.00339186 0.0
1 0.00339053 0.0
1 0.00338957 0.0
1 0.00338888 0.0
1 0.0033884 0.0
1 0.00338805 0.0
1 0.00338781 0.0
1 0.00338764 0.0
1 0.00338752 0.0
1 0.00338744 0.0
1 0.00338738 0.0
1 0.00338734 0.0
1 0.00338731 0.0
1 0.00338729 0.0
1 0.00321733 0.0
1 0.00152369 0.0
VECTORS indp double
0 0.5 0
0 1 0
0 1 0
0 1 0
0 1 0
0 1 0
0 1 0
0 0.5 0
0 0 0
0 0 0
0 0 0
0 0 0
0 0 0
0 0 0
0 0 0
0 0 0
0 0 0
0 0 0
0 0 0
0 0 0
0 0 0
0 0 0
0 0 0
0 0 0
0 0 0
0 0 0
0 0 0
0 0 0
0 0 0
0 0 0
0 0 0
0 0 0
