# vtk DataFile Version 3.0

ASCII
DATASET STRUCTURED_GRID
DIMENSIONS 2 33 1
POINTS 66 DOUBLE
0 0 0.0
0.012 0 0.0
0 0.000375 0.0
0.012 0.000375 0.0
0 0.00075 0.0
0.012 0.00075 0.0
0 0.001125 0.0
0.012 0.001125 0.0
0 0.0015 0.0
0.012 0.0015 0.0
0 0.001875 0.0
0.012 0.001875 0.0
0 0.00225 0.0
0.012 0.00225 0.0
0 0.002625 0.0
0.012 0.002625 0.0
0 0.003 0.0
0.012 0.003 0.0
0 0.003375 0.0
0.012 0.003375 0.0
0 0.00375 0.0
0.012 0.00375 0.0
0 0.004125 0.0
0.012 0.004125 0.0
0 0.0045 0.0
0.012 0.0045 0.0
0 0.004875 0.0
0.012 0.004875 0.0
0 0.00525 0.0
0.012 0.00525 0.0
0 0.005625 0.0
0.012 0.005625 0.0
0 0.006 0.0
0.012 0.006 0.0
0 0.006375 0.0
0.012 0.006375 0.0
0 0.00675 0.0
0.012 0.00675 0.0
0 0.007125 0.0
0.012 0.007125 0.0
0 0.0075 0.0
0.012 0.0075 0.0
0 0.007875 0.0
0.012 0.007875 0.0
0 0.00825 0.0
0.012 0.00825 0.0
0 0.008625 0.0
0.012 0.008625 0.0
0 0.009 0.0
0.012 0.009 0.0
0 0.009375 0.0
0.012 0.009375 0.0
0 0.00975 0.0
0.012 0.00975 0.0
0 0.010125 0.0
0.012 0.010125 0.0
0 0.0105 0.0
0.012 0.0105 0.0
0 0.010875 0.0
0.012 0.010875 0.0
0 0.01125 0.0
0.012 0.01125 0.0
0 0.011625 0.0
0.012 0.011625 0.0
0 0.012 0.0
0.012 0.012 0.0
CELL_DATA 32
SCALARS Fluid_Pressure double
LOOKUP_TABLE default
9.26392e+06
9.26026e+06
9.25652e+06
9.2527e+06
9.24879e+06
9.2448e+06
9.2407e+06
8.91678e+06
8.67932e+06
8.50265e+06
8.37053e+06
8.27178e+06
8.19822e+06
8.14371e+06
8.10356e+06
8.07416e+06
8.05278e+06
8.03733e+06
8.02624e+06
8.01833e+06
8.01273e+06
8.00878e+06
8.00603e+06
8.00411e+06
8.00278e+06
8.00187e+06
8.00125e+06
8.00082e+06
8.00052e+06
8.00031e+06
8.00015e+06
8e+06
SCALARS Fluid_Pressure_Exact double
LOOKUP_TABLE default
1.28958e+07
1.27404e+07
1.2585e+07
1.24296e+07
1.22741e+07
1.21187e+07
1.19633e+07
1.18079e+07
1.16524e+07
1.1497e+07
1.13416e+07
1.11862e+07
1.10308e+07
1.08753e+07
1.07199e+07
1.05645e+07
1.04091e+07
1.02536e+07
1.00982e+07
9.94279e+06
9.78737e+06
9.63194e+06
9.47652e+06
9.3211e+06
9.16567e+06
9.01025e+06
8.85483e+06
8.6994e+06
8.54398e+06
8.38856e+06
8.23313e+06
8.07771e+06
VECTORS FluidFlux double
0 3.76909e-09 0.0
0 3.84756e-09 0.0
0 3.9279e-09 0.0
0 4.01133e-09 0.0
0 4.09916e-09 0.0
0 4.19268e-09 0.0
0 3.61652e-09 0.0
0 2.58634e-09 0.0
0 1.89804e-09 0.0
0 1.40978e-09 0.0
0 1.05099e-09 0.0
0 7.82712e-10 0.0
0 5.80811e-10 0.0
0 4.28833e-10 0.0
0 3.14804e-10 0.0
0 2.29676e-10 0.0
0 1.66505e-10 0.0
0 1.19931e-10 0.0
0 8.58233e-11 0.0
0 6.10169e-11 0.0
0 4.30998e-11 0.0
0 3.02487e-11 0.0
0 2.10956e-11 0.0
0 1.46227e-11 0.0
0 1.00791e-11 0.0
0 6.91565e-12 0.0
0 4.73489e-12 0.0
0 3.2525e-12 0.0
0 2.26859e-12 0.0
0 1.64644e-12 0.0
0 1.29741e-12 0.0
0 1.18238e-12 0.0
SCALARS Porosity double
LOOKUP_TABLE default
0.16
0.16
0.16
0.16
0.16
0.16
0.16
0.16
0.16
0.16
0.16
0.16
0.16
0.16
0.16
0.16
0.16
0.16
0.16
0.16
0.16
0.16
0.16
0.16
0.16
0.16
0.16
0.16
0.16
0.16
0.16
0.16
SCALARS Cell_Number double
LOOKUP_TABLE default
0
1
2
3
4
5
6
7
8
9
10
11
12
13
14
15
16
17
18
19
20
21
22
23
24
25
26
27
28
29
30
31
VECTORS Permeability double
1 0.69493 0.0
1 0.38984 0.0
1 0.389799 0.0
1 0.389756 0.0
1 0.389712 0.0
1 0.3888 0.0
1 0.195686 0.0
1 0.00345382 0.0
1 0.00343637 0.0
1 0.0034234 0.0
1 0.00341375 0.0
1 0.00340658 0.0
1 0.00340127 0.0
1 0.00339736 0.0
1 0.0033945 0.0
1 0.00339242 0.0
1 0.00339092 0.0
1 0.00338984 0.0
1 0.00338906 0.0
1 0.00338852 0.0
1 0.00338813 0.0
1 0.00338786 0.0
1 0.00338767 0.0
1 0.00338754 0.0
1 0.00338746 0.0
1 0.00338739 0.0
1 0.00338735 0.0
1 0.00338732 0.0
1 0.0033873 0.0
1 0.00338729 0.0
1 0.00321733 0.0
1 0.00152369 0.0
VECTORS indp double
0 0.5 0
0 1 0
0 1 0
0 1 0
0 1 0
0 1 0
0 0.5 0
0 0 0
0 0 0
0 0 0
0 0 0
0 0 0
0 0 0
0 0 0
0 0 0
0 0 0
0 0 0
0 0 0
0 0 0
0 0 0
0 0 0
0 0 0
0 0 0
0 0 0
0 0 0
0 0 0
0 0 0
0 0 0
0 0 0
0 0 0
0 0 0
0 0 0
