# vtk DataFile Version 3.0

ASCII
DATASET STRUCTURED_GRID
DIMENSIONS 2 33 1
POINTS 66 DOUBLE
0 0 0.0
0.012 0 0.0
0 0.000375 0.0
0.012 0.000375 0.0
0 0.00075 0.0
0.012 0.00075 0.0
0 0.001125 0.0
0.012 0.001125 0.0
0 0.0015 0.0
0.012 0.0015 0.0
0 0.001875 0.0
0.012 0.001875 0.0
0 0.00225 0.0
0.012 0.00225 0.0
0 0.002625 0.0
0.012 0.002625 0.0
0 0.003 0.0
0.012 0.003 0.0
0 0.003375 0.0
0.012 0.003375 0.0
0 0.00375 0.0
0.012 0.00375 0.0
0 0.004125 0.0
0.012 0.004125 0.0
0 0.0045 0.0
0.012 0.0045 0.0
0 0.004875 0.0
0.012 0.004875 0.0
0 0.00525 0.0
0.012 0.00525 0.0
0 0.005625 0.0
0.012 0.005625 0.0
0 0.006 0.0
0.012 0.006 0.0
0 0.006375 0.0
0.012 0.006375 0.0
0 0.00675 0.0
0.012 0.00675 0.0
0 0.007125 0.0
0.012 0.007125 0.0
0 0.0075 0.0
0.012 0.0075 0.0
0 0.007875 0.0
0.012 0.007875 0.0
0 0.00825 0.0
0.012 0.00825 0.0
0 0.008625 0.0
0.012 0.008625 0.0
0 0.009 0.0
0.012 0.009 0.0
0 0.009375 0.0
0.012 0.009375 0.0
0 0.00975 0.0
0.012 0.00975 0.0
0 0.010125 0.0
0.012 0.010125 0.0
0 0.0105 0.0
0.012 0.0105 0.0
0 0.010875 0.0
0.012 0.010875 0.0
0 0.01125 0.0
0.012 0.01125 0.0
0 0.011625 0.0
0.012 0.011625 0.0
0 0.012 0.0
0.012 0.012 0.0
CELL_DATA 32
SCALARS Fluid_Pressure double
LOOKUP_TABLE default
9.27984e+06
9.27643e+06
9.27319e+06
9.27014e+06
9.26727e+06
9.26457e+06
8.98532e+06
8.75088e+06
8.56375e+06
8.41855e+06
8.30791e+06
8.22469e+06
8.16275e+06
8.11704e+06
8.0836e+06
8.05931e+06
8.0418e+06
8.02926e+06
8.02035e+06
8.01407e+06
8.00966e+06
8.00659e+06
8.00447e+06
8.00301e+06
8.00202e+06
8.00134e+06
8.00088e+06
8.00057e+06
8.00036e+06
8.00021e+06
8.0001e+06
8e+06
SCALARS Fluid_Pressure_Exact double
LOOKUP_TABLE default
1.28958e+07
1.27404e+07
1.2585e+07
1.24296e+07
1.22741e+07
1.21187e+07
1.19633e+07
1.18079e+07
1.16524e+07
1.1497e+07
1.13416e+07
1.11862e+07
1.10308e+07
1.08753e+07
1.07199e+07
1.05645e+07
1.04091e+07
1.02536e+07
1.00982e+07
9.94279e+06
9.78737e+06
9.63194e+06
9.47652e+06
9.3211e+06
9.16567e+06
9.01025e+06
8.85483e+06
8.6994e+06
8.54398e+06
8.38856e+06
8.23313e+06
8.07771e+06
VECTORS FluidFlux double
0 3.63864e-09 0.0
0 3.45493e-09 0.0
0 3.2692e-09 0.0
0 3.08011e-09 0.0
0 2.88626e-09 0.0
0 2.68621e-09 0.0
0 2.3707e-09 0.0
0 1.93533e-09 0.0
0 1.5193e-09 0.0
0 1.16588e-09 0.0
0 8.81287e-10 0.0
0 6.58726e-10 0.0
0 4.87836e-10 0.0
0 3.58326e-10 0.0
0 2.61195e-10 0.0
0 1.89002e-10 0.0
0 1.35788e-10 0.0
0 9.68709e-11 0.0
0 6.86275e-11 0.0
0 4.82839e-11 0.0
0 3.37391e-11 0.0
0 2.34166e-11 0.0
0 1.61444e-11 0.0
0 1.1059e-11 0.0
0 7.52981e-12 0.0
0 5.10067e-12 0.0
0 3.44503e-12 0.0
0 2.33187e-12 0.0
0 1.60047e-12 0.0
0 1.14199e-12 0.0
0 8.86461e-13 0.0
0 8.02532e-13 0.0
SCALARS Porosity double
LOOKUP_TABLE default
0.16
0.16
0.16
0.16
0.16
0.16
0.16
0.16
0.16
0.16
0.16
0.16
0.16
0.16
0.16
0.16
0.16
0.16
0.16
0.16
0.16
0.16
0.16
0.16
0.16
0.16
0.16
0.16
0.16
0.16
0.16
0.16
SCALARS Cell_Number double
LOOKUP_TABLE default
0
1
2
3
4
5
6
7
8
9
10
11
12
13
14
15
16
17
18
19
20
21
22
23
24
25
26
27
28
29
30
31
VECTORS Permeability double
1 0.69502 0.0
1 0.390023 0.0
1 0.38999 0.0
1 0.389958 0.0
1 0.389177 0.0
1 0.19594 0.0
1 0.00346042 0.0
1 0.00344219 0.0
1 0.00342804 0.0
1 0.00341726 0.0
1 0.00340916 0.0
1 0.00340313 0.0
1 0.00339868 0.0
1 0.00339543 0.0
1 0.00339306 0.0
1 0.00339136 0.0
1 0.00339013 0.0
1 0.00338926 0.0
1 0.00338865 0.0
1 0.00338822 0.0
1 0.00338792 0.0
1 0.00338771 0.0
1 0.00338757 0.0
1 0.00338747 0.0
1 0.0033874 0.0
1 0.00338736 0.0
1 0.00338733 0.0
1 0.00338731 0.0
1 0.00338729 0.0
1 0.00338728 0.0
1 0.00321733 0.0
1 0.00152369 0.0
VECTORS indp double
0 0.5 0
0 1 0
0 1 0
0 1 0
0 1 0
0 0.5 0
0 0 0
0 0 0
0 0 0
0 0 0
0 0 0
0 0 0
0 0 0
0 0 0
0 0 0
0 0 0
0 0 0
0 0 0
0 0 0
0 0 0
0 0 0
0 0 0
0 0 0
0 0 0
0 0 0
0 0 0
0 0 0
0 0 0
0 0 0
0 0 0
0 0 0
0 0 0
