# vtk DataFile Version 3.0

ASCII
DATASET STRUCTURED_GRID
DIMENSIONS 2 33 1
POINTS 66 DOUBLE
0 0 0.0
0.012 0 0.0
0 0.000375 0.0
0.012 0.000375 0.0
0 0.00075 0.0
0.012 0.00075 0.0
0 0.001125 0.0
0.012 0.001125 0.0
0 0.0015 0.0
0.012 0.0015 0.0
0 0.001875 0.0
0.012 0.001875 0.0
0 0.00225 0.0
0.012 0.00225 0.0
0 0.002625 0.0
0.012 0.002625 0.0
0 0.003 0.0
0.012 0.003 0.0
0 0.003375 0.0
0.012 0.003375 0.0
0 0.00375 0.0
0.012 0.00375 0.0
0 0.004125 0.0
0.012 0.004125 0.0
0 0.0045 0.0
0.012 0.0045 0.0
0 0.004875 0.0
0.012 0.004875 0.0
0 0.00525 0.0
0.012 0.00525 0.0
0 0.005625 0.0
0.012 0.005625 0.0
0 0.006 0.0
0.012 0.006 0.0
0 0.006375 0.0
0.012 0.006375 0.0
0 0.00675 0.0
0.012 0.00675 0.0
0 0.007125 0.0
0.012 0.007125 0.0
0 0.0075 0.0
0.012 0.0075 0.0
0 0.007875 0.0
0.012 0.007875 0.0
0 0.00825 0.0
0.012 0.00825 0.0
0 0.008625 0.0
0.012 0.008625 0.0
0 0.009 0.0
0.012 0.009 0.0
0 0.009375 0.0
0.012 0.009375 0.0
0 0.00975 0.0
0.012 0.00975 0.0
0 0.010125 0.0
0.012 0.010125 0.0
0 0.0105 0.0
0.012 0.0105 0.0
0 0.010875 0.0
0.012 0.010875 0.0
0 0.01125 0.0
0.012 0.01125 0.0
0 0.011625 0.0
0.012 0.011625 0.0
0 0.012 0.0
0.012 0.012 0.0
CELL_DATA 32
SCALARS Fluid_Pressure double
LOOKUP_TABLE default
9.1949e+06
9.19106e+06
9.18698e+06
9.18263e+06
8.84423e+06
8.60335e+06
8.43027e+06
8.30539e+06
8.21534e+06
8.15066e+06
8.10451e+06
8.07184e+06
8.04894e+06
8.03304e+06
8.0221e+06
8.01466e+06
8.00964e+06
8.00628e+06
8.00407e+06
8.00261e+06
8.00166e+06
8.00105e+06
8.00066e+06
8.00041e+06
8.00026e+06
8.00016e+06
8.0001e+06
8.00006e+06
8.00004e+06
8.00002e+06
8.00001e+06
8e+06
SCALARS Fluid_Pressure_Exact double
LOOKUP_TABLE default
1.28958e+07
1.27404e+07
1.2585e+07
1.24296e+07
1.22741e+07
1.21187e+07
1.19633e+07
1.18079e+07
1.16524e+07
1.1497e+07
1.13416e+07
1.11862e+07
1.10308e+07
1.08753e+07
1.07199e+07
1.05645e+07
1.04091e+07
1.02536e+07
1.00982e+07
9.94279e+06
9.78737e+06
9.63194e+06
9.47652e+06
9.3211e+06
9.16567e+06
9.01025e+06
8.85483e+06
8.6994e+06
8.54398e+06
8.38856e+06
8.23313e+06
8.07771e+06
VECTORS FluidFlux double
0 3.85541e-09 0.0
0 4.10586e-09 0.0
0 4.35607e-09 0.0
0 3.80016e-09 0.0
0 2.66338e-09 0.0
0 1.89354e-09 0.0
0 1.35789e-09 0.0
0 9.76908e-10 0.0
0 7.0195e-10 0.0
0 5.02091e-10 0.0
0 3.56686e-10 0.0
0 2.5129e-10 0.0
0 1.75416e-10 0.0
0 1.21276e-10 0.0
0 8.30267e-11 0.0
0 5.62881e-11 0.0
0 3.77952e-11 0.0
0 2.51404e-11 0.0
0 1.65704e-11 0.0
0 1.08247e-11 0.0
0 7.00975e-12 0.0
0 4.50015e-12 0.0
0 2.86385e-12 0.0
0 1.80599e-12 0.0
0 1.12767e-12 0.0
0 6.96255e-13 0.0
0 4.24231e-13 0.0
0 2.54561e-13 0.0
0 1.50576e-13 0.0
0 8.92008e-14 0.0
0 5.65183e-14 0.0
0 4.60425e-14 0.0
SCALARS Porosity double
LOOKUP_TABLE default
0.16
0.16
0.16
0.16
0.16
0.16
0.16
0.16
0.16
0.16
0.16
0.16
0.16
0.16
0.16
0.16
0.16
0.16
0.16
0.16
0.16
0.16
0.16
0.16
0.16
0.16
0.16
0.16
0.16
0.16
0.16
0.16
SCALARS Cell_Number double
LOOKUP_TABLE default
0
1
2
3
4
5
6
7
8
9
10
11
12
13
14
15
16
17
18
19
20
21
22
23
24
25
26
27
28
29
30
31
VECTORS Permeability double
1 0.694552 0.0
1 0.389081 0.0
1 0.38813 0.0
1 0.195329 0.0
1 0.00344665 0.0
1 0.0034295 0.0
1 0.0034172 0.0
1 0.00340837 0.0
1 0.00340203 0.0
1 0.00339752 0.0
1 0.00339432 0.0
1 0.00339208 0.0
1 0.00339052 0.0
1 0.00338945 0.0
1 0.00338872 0.0
1 0.00338822 0.0
1 0.00338789 0.0
1 0.00338767 0.0
1 0.00338753 0.0
1 0.00338744 0.0
1 0.00338738 0.0
1 0.00338734 0.0
1 0.00338731 0.0
1 0.0033873 0.0
1 0.00338729 0.0
1 0.00338728 0.0
1 0.00338728 0.0
1 0.00338727 0.0
1 0.00338727 0.0
1 0.00338727 0.0
1 0.00321733 0.0
1 0.00152369 0.0
VECTORS indp double
0 0.5 0
0 1 0
0 1 0
0 0.5 0
0 0 0
0 0 0
0 0 0
0 0 0
0 0 0
0 0 0
0 0 0
0 0 0
0 0 0
0 0 0
0 0 0
0 0 0
0 0 0
0 0 0
0 0 0
0 0 0
0 0 0
0 0 0
0 0 0
0 0 0
0 0 0
0 0 0
0 0 0
0 0 0
0 0 0
0 0 0
0 0 0
0 0 0
