# vtk DataFile Version 3.0

ASCII
DATASET STRUCTURED_GRID
DIMENSIONS 2 33 1
POINTS 66 DOUBLE
0 0 0.0
0.012 0 0.0
0 0.000375 0.0
0.012 0.000375 0.0
0 0.00075 0.0
0.012 0.00075 0.0
0 0.001125 0.0
0.012 0.001125 0.0
0 0.0015 0.0
0.012 0.0015 0.0
0 0.001875 0.0
0.012 0.001875 0.0
0 0.00225 0.0
0.012 0.00225 0.0
0 0.002625 0.0
0.012 0.002625 0.0
0 0.003 0.0
0.012 0.003 0.0
0 0.003375 0.0
0.012 0.003375 0.0
0 0.00375 0.0
0.012 0.00375 0.0
0 0.004125 0.0
0.012 0.004125 0.0
0 0.0045 0.0
0.012 0.0045 0.0
0 0.004875 0.0
0.012 0.004875 0.0
0 0.00525 0.0
0.012 0.00525 0.0
0 0.005625 0.0
0.012 0.005625 0.0
0 0.006 0.0
0.012 0.006 0.0
0 0.006375 0.0
0.012 0.006375 0.0
0 0.00675 0.0
0.012 0.00675 0.0
0 0.007125 0.0
0.012 0.007125 0.0
0 0.0075 0.0
0.012 0.0075 0.0
0 0.007875 0.0
0.012 0.007875 0.0
0 0.00825 0.0
0.012 0.00825 0.0
0 0.008625 0.0
0.012 0.008625 0.0
0 0.009 0.0
0.012 0.009 0.0
0 0.009375 0.0
0.012 0.009375 0.0
0 0.00975 0.0
0.012 0.00975 0.0
0 0.010125 0.0
0.012 0.010125 0.0
0 0.0105 0.0
0.012 0.0105 0.0
0 0.010875 0.0
0.012 0.010875 0.0
0 0.01125 0.0
0.012 0.01125 0.0
0 0.011625 0.0
0.012 0.011625 0.0
0 0.012 0.0
0.012 0.012 0.0
CELL_DATA 32
SCALARS Fluid_Pressure double
LOOKUP_TABLE default
9.24242e+06
9.23873e+06
9.23495e+06
9.23106e+06
9.22707e+06
9.22296e+06
8.89792e+06
8.66024e+06
8.48426e+06
8.35351e+06
8.25657e+06
8.18502e+06
8.13254e+06
8.09429e+06
8.06663e+06
8.04676e+06
8.03259e+06
8.02256e+06
8.01551e+06
8.01059e+06
8.00719e+06
8.00485e+06
8.00325e+06
8.00216e+06
8.00143e+06
8.00094e+06
8.00061e+06
8.00039e+06
8.00025e+06
8.00014e+06
8.00007e+06
8e+06
SCALARS Fluid_Pressure_Exact double
LOOKUP_TABLE default
1.28958e+07
1.27404e+07
1.2585e+07
1.24296e+07
1.22741e+07
1.21187e+07
1.19633e+07
1.18079e+07
1.16524e+07
1.1497e+07
1.13416e+07
1.11862e+07
1.10308e+07
1.08753e+07
1.07199e+07
1.05645e+07
1.04091e+07
1.02536e+07
1.00982e+07
9.94279e+06
9.78737e+06
9.63194e+06
9.47652e+06
9.3211e+06
9.16567e+06
9.01025e+06
8.85483e+06
8.6994e+06
8.54398e+06
8.38856e+06
8.23313e+06
8.07771e+06
VECTORS FluidFlux double
0 3.77951e-09 0.0
0 3.87895e-09 0.0
0 3.98062e-09 0.0
0 4.08602e-09 0.0
0 4.19668e-09 0.0
0 3.62713e-09 0.0
0 2.59111e-09 0.0
0 1.89493e-09 0.0
0 1.39973e-09 0.0
0 1.03607e-09 0.0
0 7.651e-10 0.0
0 5.62347e-10 0.0
0 4.10876e-10 0.0
0 2.98233e-10 0.0
0 2.14977e-10 0.0
0 1.53866e-10 0.0
0 1.09337e-10 0.0
0 7.71355e-11 0.0
0 5.4026e-11 0.0
0 3.75685e-11 0.0
0 2.5938e-11 0.0
0 1.77816e-11 0.0
0 1.21051e-11 0.0
0 8.18463e-12 0.0
0 5.49797e-12 0.0
0 3.67206e-12 0.0
0 2.44311e-12 0.0
0 1.62679e-12 0.0
0 1.09643e-12 0.0
0 7.67177e-13 0.0
0 5.84999e-13 0.0
0 5.25394e-13 0.0
SCALARS Porosity double
LOOKUP_TABLE default
0.16
0.16
0.16
0.16
0.16
0.16
0.16
0.16
0.16
0.16
0.16
0.16
0.16
0.16
0.16
0.16
0.16
0.16
0.16
0.16
0.16
0.16
0.16
0.16
0.16
0.16
0.16
0.16
0.16
0.16
0.16
0.16
SCALARS Cell_Number double
LOOKUP_TABLE default
0
1
2
3
4
5
6
7
8
9
10
11
12
13
14
15
16
17
18
19
20
21
22
23
24
25
26
27
28
29
30
31
VECTORS Permeability double
1 0.694813 0.0
1 0.389605 0.0
1 0.389562 0.0
1 0.389519 0.0
1 0.388603 0.0
1 0.195586 0.0
1 0.00345199 0.0
1 0.00343462 0.0
1 0.00342178 0.0
1 0.0034123 0.0
1 0.00340532 0.0
1 0.0034002 0.0
1 0.00339648 0.0
1 0.00339378 0.0
1 0.00339184 0.0
1 0.00339046 0.0
1 0.00338948 0.0
1 0.00338879 0.0
1 0.00338831 0.0
1 0.00338798 0.0
1 0.00338775 0.0
1 0.00338759 0.0
1 0.00338748 0.0
1 0.00338741 0.0
1 0.00338736 0.0
1 0.00338733 0.0
1 0.00338731 0.0
1 0.0033873 0.0
1 0.00338729 0.0
1 0.00338728 0.0
1 0.00321733 0.0
1 0.00152369 0.0
VECTORS indp double
0 0.5 0
0 1 0
0 1 0
0 1 0
0 1 0
0 0.5 0
0 0 0
0 0 0
0 0 0
0 0 0
0 0 0
0 0 0
0 0 0
0 0 0
0 0 0
0 0 0
0 0 0
0 0 0
0 0 0
0 0 0
0 0 0
0 0 0
0 0 0
0 0 0
0 0 0
0 0 0
0 0 0
0 0 0
0 0 0
0 0 0
0 0 0
0 0 0
