# vtk DataFile Version 3.0

ASCII
DATASET STRUCTURED_GRID
DIMENSIONS 2 33 1
POINTS 66 DOUBLE
0 0 0.0
0.012 0 0.0
0 0.000375 0.0
0.012 0.000375 0.0
0 0.00075 0.0
0.012 0.00075 0.0
0 0.001125 0.0
0.012 0.001125 0.0
0 0.0015 0.0
0.012 0.0015 0.0
0 0.001875 0.0
0.012 0.001875 0.0
0 0.00225 0.0
0.012 0.00225 0.0
0 0.002625 0.0
0.012 0.002625 0.0
0 0.003 0.0
0.012 0.003 0.0
0 0.003375 0.0
0.012 0.003375 0.0
0 0.00375 0.0
0.012 0.00375 0.0
0 0.004125 0.0
0.012 0.004125 0.0
0 0.0045 0.0
0.012 0.0045 0.0
0 0.004875 0.0
0.012 0.004875 0.0
0 0.00525 0.0
0.012 0.00525 0.0
0 0.005625 0.0
0.012 0.005625 0.0
0 0.006 0.0
0.012 0.006 0.0
0 0.006375 0.0
0.012 0.006375 0.0
0 0.00675 0.0
0.012 0.00675 0.0
0 0.007125 0.0
0.012 0.007125 0.0
0 0.0075 0.0
0.012 0.0075 0.0
0 0.007875 0.0
0.012 0.007875 0.0
0 0.00825 0.0
0.012 0.00825 0.0
0 0.008625 0.0
0.012 0.008625 0.0
0 0.009 0.0
0.012 0.009 0.0
0 0.009375 0.0
0.012 0.009375 0.0
0 0.00975 0.0
0.012 0.00975 0.0
0 0.010125 0.0
0.012 0.010125 0.0
0 0.0105 0.0
0.012 0.0105 0.0
0 0.010875 0.0
0.012 0.010875 0.0
0 0.01125 0.0
0.012 0.01125 0.0
0 0.011625 0.0
0.012 0.011625 0.0
0 0.012 0.0
0.012 0.012 0.0
CELL_DATA 32
SCALARS Fluid_Pressure double
LOOKUP_TABLE default
9.38446e+06
9.38088e+06
9.3773e+06
9.37372e+06
9.37014e+06
9.36655e+06
9.36297e+06
9.35938e+06
9.35579e+06
9.35221e+06
9.34862e+06
9.34503e+06
9.34143e+06
9.33784e+06
9.33425e+06
9.33065e+06
9.32706e+06
9.32346e+06
9.31986e+06
9.31626e+06
9.31266e+06
9.30906e+06
9.30546e+06
9.30186e+06
9.29825e+06
9.29465e+06
9.29104e+06
9.28743e+06
9.2838e+06
8.87608e+06
8.46328e+06
8.00141e+06
SCALARS Fluid_Pressure_Exact double
LOOKUP_TABLE default
1.28958e+07
1.27404e+07
1.2585e+07
1.24296e+07
1.22741e+07
1.21187e+07
1.19633e+07
1.18079e+07
1.16524e+07
1.1497e+07
1.13416e+07
1.11862e+07
1.10308e+07
1.08753e+07
1.07199e+07
1.05645e+07
1.04091e+07
1.02536e+07
1.00982e+07
9.94279e+06
9.78737e+06
9.63194e+06
9.47652e+06
9.3211e+06
9.16567e+06
9.01025e+06
8.85483e+06
8.6994e+06
8.54398e+06
8.38856e+06
8.23313e+06
8.07771e+06
VECTORS FluidFlux double
0 3.73055e-09 0.0
0 3.73133e-09 0.0
0 3.73211e-09 0.0
0 3.7329e-09 0.0
0 3.73368e-09 0.0
0 3.73446e-09 0.0
0 3.73524e-09 0.0
0 3.73602e-09 0.0
0 3.7368e-09 0.0
0 3.73758e-09 0.0
0 3.73836e-09 0.0
0 3.73914e-09 0.0
0 3.73992e-09 0.0
0 3.7407e-09 0.0
0 3.74147e-09 0.0
0 3.74225e-09 0.0
0 3.74302e-09 0.0
0 3.74379e-09 0.0
0 3.74457e-09 0.0
0 3.74534e-09 0.0
0 3.74611e-09 0.0
0 3.74687e-09 0.0
0 3.74764e-09 0.0
0 3.7484e-09 0.0
0 3.74917e-09 0.0
0 3.74993e-09 0.0
0 3.75069e-09 0.0
0 3.75145e-09 0.0
0 3.7522e-09 0.0
0 3.75284e-09 0.0
0 3.75324e-09 0.0
0 3.75338e-09 0.0
SCALARS Porosity double
LOOKUP_TABLE default
0.16
0.16
0.16
0.16
0.16
0.16
0.16
0.16
0.16
0.16
0.16
0.16
0.16
0.16
0.16
0.16
0.16
0.16
0.16
0.16
0.16
0.16
0.16
0.16
0.16
0.16
0.16
0.16
0.16
0.16
0.16
0.16
SCALARS Cell_Number double
LOOKUP_TABLE default
0
1
2
3
4
5
6
7
8
9
10
11
12
13
14
15
16
17
18
19
20
21
22
23
24
25
26
27
28
29
30
31
VECTORS Permeability double
1 0.69559 0.0
1 0.391161 0.0
1 0.391122 0.0
1 0.391083 0.0
1 0.391043 0.0
1 0.391004 0.0
1 0.390965 0.0
1 0.390926 0.0
1 0.390886 0.0
1 0.390847 0.0
1 0.390808 0.0
1 0.390769 0.0
1 0.390729 0.0
1 0.39069 0.0
1 0.390651 0.0
1 0.390611 0.0
1 0.390572 0.0
1 0.390533 0.0
1 0.390493 0.0
1 0.390454 0.0
1 0.390415 0.0
1 0.390375 0.0
1 0.390336 0.0
1 0.390296 0.0
1 0.390257 0.0
1 0.390218 0.0
1 0.390178 0.0
1 0.389041 0.0
1 0.195688 0.0
1 0.00343045 0.0
1 0.00322845 0.0
1 0.00152373 0.0
VECTORS indp double
0 0.5 0
0 1 0
0 1 0
0 1 0
0 1 0
0 1 0
0 1 0
0 1 0
0 1 0
0 1 0
0 1 0
0 1 0
0 1 0
0 1 0
0 1 0
0 1 0
0 1 0
0 1 0
0 1 0
0 1 0
0 1 0
0 1 0
0 1 0
0 1 0
0 1 0
0 1 0
0 1 0
0 1 0
0 0.5 0
0 0 0
0 0 0
0 0 0
