# vtk DataFile Version 3.0

ASCII
DATASET STRUCTURED_GRID
DIMENSIONS 2 33 1
POINTS 66 DOUBLE
0 0 0.0
0.012 0 0.0
0 0.000375 0.0
0.012 0.000375 0.0
0 0.00075 0.0
0.012 0.00075 0.0
0 0.001125 0.0
0.012 0.001125 0.0
0 0.0015 0.0
0.012 0.0015 0.0
0 0.001875 0.0
0.012 0.001875 0.0
0 0.00225 0.0
0.012 0.00225 0.0
0 0.002625 0.0
0.012 0.002625 0.0
0 0.003 0.0
0.012 0.003 0.0
0 0.003375 0.0
0.012 0.003375 0.0
0 0.00375 0.0
0.012 0.00375 0.0
0 0.004125 0.0
0.012 0.004125 0.0
0 0.0045 0.0
0.012 0.0045 0.0
0 0.004875 0.0
0.012 0.004875 0.0
0 0.00525 0.0
0.012 0.00525 0.0
0 0.005625 0.0
0.012 0.005625 0.0
0 0.006 0.0
0.012 0.006 0.0
0 0.006375 0.0
0.012 0.006375 0.0
0 0.00675 0.0
0.012 0.00675 0.0
0 0.007125 0.0
0.012 0.007125 0.0
0 0.0075 0.0
0.012 0.0075 0.0
0 0.007875 0.0
0.012 0.007875 0.0
0 0.00825 0.0
0.012 0.00825 0.0
0 0.008625 0.0
0.012 0.008625 0.0
0 0.009 0.0
0.012 0.009 0.0
0 0.009375 0.0
0.012 0.009375 0.0
0 0.00975 0.0
0.012 0.00975 0.0
0 0.010125 0.0
0.012 0.010125 0.0
0 0.0105 0.0
0.012 0.0105 0.0
0 0.010875 0.0
0.012 0.010875 0.0
0 0.01125 0.0
0.012 0.01125 0.0
0 0.011625 0.0
0.012 0.011625 0.0
0 0.012 0.0
0.012 0.012 0.0
CELL_DATA 32
SCALARS Fluid_Pressure double
LOOKUP_TABLE default
9.26966e+06
9.26603e+06
9.26235e+06
9.25864e+06
9.25487e+06
9.25106e+06
9.2472e+06
9.24327e+06
9.23929e+06
9.23521e+06
8.91424e+06
8.67925e+06
8.50456e+06
8.37395e+06
8.27625e+06
8.20333e+06
8.14907e+06
8.10885e+06
8.07916e+06
8.05733e+06
8.04135e+06
8.02969e+06
8.02122e+06
8.01509e+06
8.01067e+06
8.00749e+06
8.0052e+06
8.00355e+06
8.00234e+06
8.00143e+06
8.00071e+06
8e+06
SCALARS Fluid_Pressure_Exact double
LOOKUP_TABLE default
1.28958e+07
1.27404e+07
1.2585e+07
1.24296e+07
1.22741e+07
1.21187e+07
1.19633e+07
1.18079e+07
1.16524e+07
1.1497e+07
1.13416e+07
1.11862e+07
1.10308e+07
1.08753e+07
1.07199e+07
1.05645e+07
1.04091e+07
1.02536e+07
1.00982e+07
9.94279e+06
9.78737e+06
9.63194e+06
9.47652e+06
9.3211e+06
9.16567e+06
9.01025e+06
8.85483e+06
8.6994e+06
8.54398e+06
8.38856e+06
8.23313e+06
8.07771e+06
VECTORS FluidFlux double
0 3.75153e-09 0.0
0 3.79465e-09 0.0
0 3.83895e-09 0.0
0 3.88519e-09 0.0
0 3.93419e-09 0.0
0 3.98679e-09 0.0
0 4.04385e-09 0.0
0 4.10628e-09 0.0
0 4.17504e-09 0.0
0 3.5879e-09 0.0
0 2.56135e-09 0.0
0 1.87773e-09 0.0
0 1.39397e-09 0.0
0 1.03945e-09 0.0
0 7.7518e-10 0.0
0 5.76909e-10 0.0
0 4.28026e-10 0.0
0 3.16436e-10 0.0
0 2.33055e-10 0.0
0 1.70978e-10 0.0
0 1.24941e-10 0.0
0 9.09384e-11 0.0
0 6.59318e-11 0.0
0 4.76276e-11 0.0
0 3.4302e-11 0.0
0 2.46663e-11 0.0
0 1.77642e-11 0.0
0 1.28931e-11 0.0
0 9.54526e-12 0.0
0 7.36393e-12 0.0
0 6.11255e-12 0.0
0 5.69521e-12 0.0
SCALARS Porosity double
LOOKUP_TABLE default
0.16
0.16
0.16
0.16
0.16
0.16
0.16
0.16
0.16
0.16
0.16
0.16
0.16
0.16
0.16
0.16
0.16
0.16
0.16
0.16
0.16
0.16
0.16
0.16
0.16
0.16
0.16
0.16
0.16
0.16
0.16
0.16
SCALARS Cell_Number double
LOOKUP_TABLE default
0
1
2
3
4
5
6
7
8
9
10
11
12
13
14
15
16
17
18
19
20
21
22
23
24
25
26
27
28
29
30
31
VECTORS Permeability double
1 0.694962 0.0
1 0.389904 0.0
1 0.389864 0.0
1 0.389822 0.0
1 0.389781 0.0
1 0.389739 0.0
1 0.389696 0.0
1 0.389652 0.0
1 0.388748 0.0
1 0.195664 0.0
1 0.0034538 0.0
1 0.00343654 0.0
1 0.00342372 0.0
1 0.00341417 0.0
1 0.00340706 0.0
1 0.00340177 0.0
1 0.00339786 0.0
1 0.00339497 0.0
1 0.00339285 0.0
1 0.0033913 0.0
1 0.00339016 0.0
1 0.00338934 0.0
1 0.00338874 0.0
1 0.00338831 0.0
1 0.003388 0.0
1 0.00338778 0.0
1 0.00338762 0.0
1 0.0033875 0.0
1 0.00338741 0.0
1 0.00338734 0.0
1 0.00321734 0.0
1 0.00152369 0.0
VECTORS indp double
0 0.5 0
0 1 0
0 1 0
0 1 0
0 1 0
0 1 0
0 1 0
0 1 0
0 1 0
0 0.5 0
0 0 0
0 0 0
0 0 0
0 0 0
0 0 0
0 0 0
0 0 0
0 0 0
0 0 0
0 0 0
0 0 0
0 0 0
0 0 0
0 0 0
0 0 0
0 0 0
0 0 0
0 0 0
0 0 0
0 0 0
0 0 0
0 0 0
