# vtk DataFile Version 3.0

ASCII
DATASET STRUCTURED_GRID
DIMENSIONS 2 33 1
POINTS 66 DOUBLE
0 0 0.0
0.012 0 0.0
0 0.000375 0.0
0.012 0.000375 0.0
0 0.00075 0.0
0.012 0.00075 0.0
0 0.001125 0.0
0.012 0.001125 0.0
0 0.0015 0.0
0.012 0.0015 0.0
0 0.001875 0.0
0.012 0.001875 0.0
0 0.00225 0.0
0.012 0.00225 0.0
0 0.002625 0.0
0.012 0.002625 0.0
0 0.003 0.0
0.012 0.003 0.0
0 0.003375 0.0
0.012 0.003375 0.0
0 0.00375 0.0
0.012 0.00375 0.0
0 0.004125 0.0
0.012 0.004125 0.0
0 0.0045 0.0
0.012 0.0045 0.0
0 0.004875 0.0
0.012 0.004875 0.0
0 0.00525 0.0
0.012 0.00525 0.0
0 0.005625 0.0
0.012 0.005625 0.0
0 0.006 0.0
0.012 0.006 0.0
0 0.006375 0.0
0.012 0.006375 0.0
0 0.00675 0.0
0.012 0.00675 0.0
0 0.007125 0.0
0.012 0.007125 0.0
0 0.0075 0.0
0.012 0.0075 0.0
0 0.007875 0.0
0.012 0.007875 0.0
0 0.00825 0.0
0.012 0.00825 0.0
0 0.008625 0.0
0.012 0.008625 0.0
0 0.009 0.0
0.012 0.009 0.0
0 0.009375 0.0
0.012 0.009375 0.0
0 0.00975 0.0
0.012 0.00975 0.0
0 0.010125 0.0
0.012 0.010125 0.0
0 0.0105 0.0
0.012 0.0105 0.0
0 0.010875 0.0
0.012 0.010875 0.0
0 0.01125 0.0
0.012 0.01125 0.0
0 0.011625 0.0
0.012 0.011625 0.0
0 0.012 0.0
0.012 0.012 0.0
CELL_DATA 32
SCALARS Fluid_Pressure double
LOOKUP_TABLE default
9.27993e+06
9.27629e+06
9.27259e+06
9.26883e+06
9.26502e+06
9.26115e+06
9.25723e+06
9.25324e+06
9.24919e+06
9.24508e+06
9.24091e+06
9.23668e+06
9.23238e+06
9.22801e+06
9.22355e+06
8.88343e+06
8.64445e+06
8.47333e+06
8.34905e+06
8.25788e+06
8.19058e+06
8.14073e+06
8.10374e+06
8.07625e+06
8.05581e+06
8.04059e+06
8.0292e+06
8.0206e+06
8.014e+06
8.00876e+06
8.00439e+06
8.00002e+06
SCALARS Fluid_Pressure_Exact double
LOOKUP_TABLE default
1.28958e+07
1.27404e+07
1.2585e+07
1.24296e+07
1.22741e+07
1.21187e+07
1.19633e+07
1.18079e+07
1.16524e+07
1.1497e+07
1.13416e+07
1.11862e+07
1.10308e+07
1.08753e+07
1.07199e+07
1.05645e+07
1.04091e+07
1.02536e+07
1.00982e+07
9.94279e+06
9.78737e+06
9.63194e+06
9.47652e+06
9.3211e+06
9.16567e+06
9.01025e+06
8.85483e+06
8.6994e+06
8.54398e+06
8.38856e+06
8.23313e+06
8.07771e+06
VECTORS FluidFlux double
0 3.75882e-09 0.0
0 3.81623e-09 0.0
0 3.8739e-09 0.0
0 3.93201e-09 0.0
0 3.99071e-09 0.0
0 4.05019e-09 0.0
0 4.11057e-09 0.0
0 4.17203e-09 0.0
0 4.23468e-09 0.0
0 4.29866e-09 0.0
0 4.36407e-09 0.0
0 4.431e-09 0.0
0 4.49954e-09 0.0
0 4.56967e-09 0.0
0 3.8719e-09 0.0
0 2.66566e-09 0.0
0 1.87807e-09 0.0
0 1.34787e-09 0.0
0 9.80449e-10 0.0
0 7.19659e-10 0.0
0 5.31218e-10 0.0
0 3.93396e-10 0.0
0 2.91852e-10 0.0
0 2.16772e-10 0.0
0 1.6124e-10 0.0
0 1.20287e-10 0.0
0 9.03024e-11 0.0
0 6.86574e-11 0.0
0 5.34563e-11 0.0
0 4.33646e-11 0.0
0 3.74934e-11 0.0
0 3.55208e-11 0.0
SCALARS Porosity double
LOOKUP_TABLE default
0.16
0.16
0.16
0.16
0.16
0.16
0.16
0.16
0.16
0.16
0.16
0.16
0.16
0.16
0.16
0.16
0.16
0.16
0.16
0.16
0.16
0.16
0.16
0.16
0.16
0.16
0.16
0.16
0.16
0.16
0.16
0.16
SCALARS Cell_Number double
LOOKUP_TABLE default
0
1
2
3
4
5
6
7
8
9
10
11
12
13
14
15
16
17
18
19
20
21
22
23
24
25
26
27
28
29
30
31
VECTORS Permeability double
1 0.695018 0.0
1 0.390016 0.0
1 0.389975 0.0
1 0.389933 0.0
1 0.389891 0.0
1 0.389848 0.0
1 0.389805 0.0
1 0.38976 0.0
1 0.389716 0.0
1 0.38967 0.0
1 0.389624 0.0
1 0.389577 0.0
1 0.389529 0.0
1 0.38857 0.0
1 0.195548 0.0
1 0.00345062 0.0
1 0.0034336 0.0
1 0.00342134 0.0
1 0.00341239 0.0
1 0.00340581 0.0
1 0.00340095 0.0
1 0.00339735 0.0
1 0.00339468 0.0
1 0.00339269 0.0
1 0.00339121 0.0
1 0.00339011 0.0
1 0.00338927 0.0
1 0.00338863 0.0
1 0.00338812 0.0
1 0.00338769 0.0
1 0.00321743 0.0
1 0.00152369 0.0
VECTORS indp double
0 0.5 0
0 1 0
0 1 0
0 1 0
0 1 0
0 1 0
0 1 0
0 1 0
0 1 0
0 1 0
0 1 0
0 1 0
0 1 0
0 1 0
0 0.5 0
0 0 0
0 0 0
0 0 0
0 0 0
0 0 0
0 0 0
0 0 0
0 0 0
0 0 0
0 0 0
0 0 0
0 0 0
0 0 0
0 0 0
0 0 0
0 0 0
0 0 0
