# vtk DataFile Version 3.0

ASCII
DATASET STRUCTURED_GRID
DIMENSIONS 2 33 1
POINTS 66 DOUBLE
0 0 0.0
0.012 0 0.0
0 0.000375 0.0
0.012 0.000375 0.0
0 0.00075 0.0
0.012 0.00075 0.0
0 0.001125 0.0
0.012 0.001125 0.0
0 0.0015 0.0
0.012 0.0015 0.0
0 0.001875 0.0
0.012 0.001875 0.0
0 0.00225 0.0
0.012 0.00225 0.0
0 0.002625 0.0
0.012 0.002625 0.0
0 0.003 0.0
0.012 0.003 0.0
0 0.003375 0.0
0.012 0.003375 0.0
0 0.00375 0.0
0.012 0.00375 0.0
0 0.004125 0.0
0.012 0.004125 0.0
0 0.0045 0.0
0.012 0.0045 0.0
0 0.004875 0.0
0.012 0.004875 0.0
0 0.00525 0.0
0.012 0.00525 0.0
0 0.005625 0.0
0.012 0.005625 0.0
0 0.006 0.0
0.012 0.006 0.0
0 0.006375 0.0
0.012 0.006375 0.0
0 0.00675 0.0
0.012 0.00675 0.0
0 0.007125 0.0
0.012 0.007125 0.0
0 0.0075 0.0
0.012 0.0075 0.0
0 0.007875 0.0
0.012 0.007875 0.0
0 0.00825 0.0
0.012 0.00825 0.0
0 0.008625 0.0
0.012 0.008625 0.0
0 0.009 0.0
0.012 0.009 0.0
0 0.009375 0.0
0.012 0.009375 0.0
0 0.00975 0.0
0.012 0.00975 0.0
0 0.010125 0.0
0.012 0.010125 0.0
0 0.0105 0.0
0.012 0.0105 0.0
0 0.010875 0.0
0.012 0.010875 0.0
0 0.01125 0.0
0.012 0.01125 0.0
0 0.011625 0.0
0.012 0.011625 0.0
0 0.012 0.0
0.012 0.012 0.0
CELL_DATA 32
SCALARS Fluid_Pressure double
LOOKUP_TABLE default
9.29165e+06
9.28805e+06
9.28442e+06
9.28077e+06
9.2771e+06
9.2734e+06
9.26967e+06
9.26592e+06
9.26213e+06
9.25831e+06
9.25444e+06
9.25052e+06
9.24656e+06
9.24251e+06
8.92371e+06
8.68999e+06
8.51582e+06
8.38515e+06
8.28698e+06
8.2133e+06
8.1581e+06
8.11685e+06
8.08609e+06
8.06319e+06
8.04616e+06
8.03349e+06
8.02403e+06
8.01691e+06
8.01147e+06
8.00716e+06
8.00359e+06
8.00001e+06
SCALARS Fluid_Pressure_Exact double
LOOKUP_TABLE default
1.28958e+07
1.27404e+07
1.2585e+07
1.24296e+07
1.22741e+07
1.21187e+07
1.19633e+07
1.18079e+07
1.16524e+07
1.1497e+07
1.13416e+07
1.11862e+07
1.10308e+07
1.08753e+07
1.07199e+07
1.05645e+07
1.04091e+07
1.02536e+07
1.00982e+07
9.94279e+06
9.78737e+06
9.63194e+06
9.47652e+06
9.3211e+06
9.16567e+06
9.01025e+06
8.85483e+06
8.6994e+06
8.54398e+06
8.38856e+06
8.23313e+06
8.07771e+06
VECTORS FluidFlux double
0 3.74045e-09 0.0
0 3.76127e-09 0.0
0 3.7828e-09 0.0
0 3.80552e-09 0.0
0 3.82991e-09 0.0
0 3.85648e-09 0.0
0 3.88577e-09 0.0
0 3.91831e-09 0.0
0 3.95472e-09 0.0
0 3.9956e-09 0.0
0 4.04163e-09 0.0
0 4.09354e-09 0.0
0 4.15208e-09 0.0
0 3.56425e-09 0.0
0 2.54623e-09 0.0
0 1.87014e-09 0.0
0 1.39231e-09 0.0
0 1.04218e-09 0.0
0 7.80982e-10 0.0
0 5.84729e-10 0.0
0 4.37038e-10 0.0
0 3.2602e-10 0.0
0 2.42775e-10 0.0
0 1.80558e-10 0.0
0 1.34256e-10 0.0
0 9.9999e-11 0.0
0 7.48826e-11 0.0
0 5.67474e-11 0.0
0 4.40158e-11 0.0
0 3.55683e-11 0.0
0 3.06564e-11 0.0
0 2.90066e-11 0.0
SCALARS Porosity double
LOOKUP_TABLE default
0.16
0.16
0.16
0.16
0.16
0.16
0.16
0.16
0.16
0.16
0.16
0.16
0.16
0.16
0.16
0.16
0.16
0.16
0.16
0.16
0.16
0.16
0.16
0.16
0.16
0.16
0.16
0.16
0.16
0.16
0.16
0.16
SCALARS Cell_Number double
LOOKUP_TABLE default
0
1
2
3
4
5
6
7
8
9
10
11
12
13
14
15
16
17
18
19
20
21
22
23
24
25
26
27
28
29
30
31
VECTORS Permeability double
1 0.695083 0.0
1 0.390145 0.0
1 0.390105 0.0
1 0.390065 0.0
1 0.390025 0.0
1 0.389984 0.0
1 0.389943 0.0
1 0.389902 0.0
1 0.38986 0.0
1 0.389818 0.0
1 0.389775 0.0
1 0.389732 0.0
1 0.388833 0.0
1 0.19571 0.0
1 0.00345482 0.0
1 0.00343761 0.0
1 0.00342479 0.0
1 0.00341519 0.0
1 0.00340801 0.0
1 0.00340263 0.0
1 0.00339862 0.0
1 0.00339563 0.0
1 0.00339341 0.0
1 0.00339176 0.0
1 0.00339053 0.0
1 0.00338961 0.0
1 0.00338892 0.0
1 0.00338839 0.0
1 0.00338797 0.0
1 0.00338761 0.0
1 0.00321741 0.0
1 0.00152369 0.0
VECTORS indp double
0 0.5 0
0 1 0
0 1 0
0 1 0
0 1 0
0 1 0
0 1 0
0 1 0
0 1 0
0 1 0
0 1 0
0 1 0
0 1 0
0 0.5 0
0 0 0
0 0 0
0 0 0
0 0 0
0 0 0
0 0 0
0 0 0
0 0 0
0 0 0
0 0 0
0 0 0
0 0 0
0 0 0
0 0 0
0 0 0
0 0 0
0 0 0
0 0 0
