# vtk DataFile Version 3.0

ASCII
DATASET STRUCTURED_GRID
DIMENSIONS 2 33 1
POINTS 66 DOUBLE
0 0 0.0
0.012 0 0.0
0 0.000375 0.0
0.012 0.000375 0.0
0 0.00075 0.0
0.012 0.00075 0.0
0 0.001125 0.0
0.012 0.001125 0.0
0 0.0015 0.0
0.012 0.0015 0.0
0 0.001875 0.0
0.012 0.001875 0.0
0 0.00225 0.0
0.012 0.00225 0.0
0 0.002625 0.0
0.012 0.002625 0.0
0 0.003 0.0
0.012 0.003 0.0
0 0.003375 0.0
0.012 0.003375 0.0
0 0.00375 0.0
0.012 0.00375 0.0
0 0.004125 0.0
0.012 0.004125 0.0
0 0.0045 0.0
0.012 0.0045 0.0
0 0.004875 0.0
0.012 0.004875 0.0
0 0.00525 0.0
0.012 0.00525 0.0
0 0.005625 0.0
0.012 0.005625 0.0
0 0.006 0.0
0.012 0.006 0.0
0 0.006375 0.0
0.012 0.006375 0.0
0 0.00675 0.0
0.012 0.00675 0.0
0 0.007125 0.0
0.012 0.007125 0.0
0 0.0075 0.0
0.012 0.0075 0.0
0 0.007875 0.0
0.012 0.007875 0.0
0 0.00825 0.0
0.012 0.00825 0.0
0 0.008625 0.0
0.012 0.008625 0.0
0 0.009 0.0
0.012 0.009 0.0
0 0.009375 0.0
0.012 0.009375 0.0
0 0.00975 0.0
0.012 0.00975 0.0
0 0.010125 0.0
0.012 0.010125 0.0
0 0.0105 0.0
0.012 0.0105 0.0
0 0.010875 0.0
0.012 0.010875 0.0
0 0.01125 0.0
0.012 0.01125 0.0
0 0.011625 0.0
0.012 0.011625 0.0
0 0.012 0.0
0.012 0.012 0.0
CELL_DATA 32
SCALARS Fluid_Pressure double
LOOKUP_TABLE default
9.29586e+06
9.29235e+06
9.28892e+06
9.28556e+06
9.28228e+06
9.27908e+06
9.27597e+06
9.27294e+06
9.27e+06
9.26716e+06
9.26441e+06
9.26178e+06
9.25924e+06
8.98944e+06
8.76048e+06
8.57675e+06
8.43366e+06
8.32413e+06
8.24119e+06
8.17883e+06
8.13217e+06
8.09739e+06
8.07152e+06
8.05232e+06
8.0381e+06
8.02755e+06
8.0197e+06
8.01383e+06
8.00935e+06
8.00583e+06
8.00291e+06
8.00001e+06
SCALARS Fluid_Pressure_Exact double
LOOKUP_TABLE default
1.28958e+07
1.27404e+07
1.2585e+07
1.24296e+07
1.22741e+07
1.21187e+07
1.19633e+07
1.18079e+07
1.16524e+07
1.1497e+07
1.13416e+07
1.11862e+07
1.10308e+07
1.08753e+07
1.07199e+07
1.05645e+07
1.04091e+07
1.02536e+07
1.00982e+07
9.94279e+06
9.78737e+06
9.63194e+06
9.47652e+06
9.3211e+06
9.16567e+06
9.01025e+06
8.85483e+06
8.6994e+06
8.54398e+06
8.38856e+06
8.23313e+06
8.07771e+06
VECTORS FluidFlux double
0 3.69062e-09 0.0
0 3.61129e-09 0.0
0 3.53116e-09 0.0
0 3.44972e-09 0.0
0 3.36643e-09 0.0
0 3.28071e-09 0.0
0 3.192e-09 0.0
0 3.09968e-09 0.0
0 3.00311e-09 0.0
0 2.90161e-09 0.0
0 2.79444e-09 0.0
0 2.68082e-09 0.0
0 2.55987e-09 0.0
0 2.30234e-09 0.0
0 1.8952e-09 0.0
0 1.49474e-09 0.0
0 1.15174e-09 0.0
0 8.75361e-10 0.0
0 6.59626e-10 0.0
0 4.9425e-10 0.0
0 3.68867e-10 0.0
0 2.74483e-10 0.0
0 2.03799e-10 0.0
0 1.51092e-10 0.0
0 1.11968e-10 0.0
0 8.30952e-11 0.0
0 6.19769e-11 0.0
0 4.67617e-11 0.0
0 3.61002e-11 0.0
0 2.90374e-11 0.0
0 2.49353e-11 0.0
0 2.35583e-11 0.0
SCALARS Porosity double
LOOKUP_TABLE default
0.16
0.16
0.16
0.16
0.16
0.16
0.16
0.16
0.16
0.16
0.16
0.16
0.16
0.16
0.16
0.16
0.16
0.16
0.16
0.16
0.16
0.16
0.16
0.16
0.16
0.16
0.16
0.16
0.16
0.16
0.16
0.16
SCALARS Cell_Number double
LOOKUP_TABLE default
0
1
2
3
4
5
6
7
8
9
10
11
12
13
14
15
16
17
18
19
20
21
22
23
24
25
26
27
28
29
30
31
VECTORS Permeability double
1 0.695107 0.0
1 0.390195 0.0
1 0.390158 0.0
1 0.390122 0.0
1 0.390087 0.0
1 0.390053 0.0
1 0.39002 0.0
1 0.389988 0.0
1 0.389957 0.0
1 0.389927 0.0
1 0.389898 0.0
1 0.389144 0.0
1 0.195937 0.0
1 0.0034613 0.0
1 0.00344341 0.0
1 0.00342947 0.0
1 0.00341879 0.0
1 0.00341072 0.0
1 0.00340465 0.0
1 0.00340011 0.0
1 0.00339673 0.0
1 0.00339422 0.0
1 0.00339236 0.0
1 0.00339097 0.0
1 0.00338995 0.0
1 0.00338919 0.0
1 0.00338862 0.0
1 0.00338818 0.0
1 0.00338784 0.0
1 0.00338755 0.0
1 0.0032174 0.0
1 0.00152369 0.0
VECTORS indp double
0 0.5 0
0 1 0
0 1 0
0 1 0
0 1 0
0 1 0
0 1 0
0 1 0
0 1 0
0 1 0
0 1 0
0 1 0
0 0.5 0
0 0 0
0 0 0
0 0 0
0 0 0
0 0 0
0 0 0
0 0 0
0 0 0
0 0 0
0 0 0
0 0 0
0 0 0
0 0 0
0 0 0
0 0 0
0 0 0
0 0 0
0 0 0
0 0 0
