# vtk DataFile Version 3.0

ASCII
DATASET STRUCTURED_GRID
DIMENSIONS 2 33 1
POINTS 66 DOUBLE
0 0 0.0
0.012 0 0.0
0 0.000375 0.0
0.012 0.000375 0.0
0 0.00075 0.0
0.012 0.00075 0.0
0 0.001125 0.0
0.012 0.001125 0.0
0 0.0015 0.0
0.012 0.0015 0.0
0 0.001875 0.0
0.012 0.001875 0.0
0 0.00225 0.0
0.012 0.00225 0.0
0 0.002625 0.0
0.012 0.002625 0.0
0 0.003 0.0
0.012 0.003 0.0
0 0.003375 0.0
0.012 0.003375 0.0
0 0.00375 0.0
0.012 0.00375 0.0
0 0.004125 0.0
0.012 0.004125 0.0
0 0.0045 0.0
0.012 0.0045 0.0
0 0.004875 0.0
0.012 0.004875 0.0
0 0.00525 0.0
0.012 0.00525 0.0
0 0.005625 0.0
0.012 0.005625 0.0
0 0.006 0.0
0.012 0.006 0.0
0 0.006375 0.0
0.012 0.006375 0.0
0 0.00675 0.0
0.012 0.00675 0.0
0 0.007125 0.0
0.012 0.007125 0.0
0 0.0075 0.0
0.012 0.0075 0.0
0 0.007875 0.0
0.012 0.007875 0.0
0 0.00825 0.0
0.012 0.00825 0.0
0 0.008625 0.0
0.012 0.008625 0.0
0 0.009 0.0
0.012 0.009 0.0
0 0.009375 0.0
0.012 0.009375 0.0
0 0.00975 0.0
0.012 0.00975 0.0
0 0.010125 0.0
0.012 0.010125 0.0
0 0.0105 0.0
0.012 0.0105 0.0
0 0.010875 0.0
0.012 0.010875 0.0
0 0.01125 0.0
0.012 0.01125 0.0
0 0.011625 0.0
0.012 0.011625 0.0
0 0.012 0.0
0.012 0.012 0.0
CELL_DATA 32
SCALARS Fluid_Pressure double
LOOKUP_TABLE default
9.28607e+06
9.28256e+06
9.27912e+06
9.27576e+06
9.27248e+06
9.26928e+06
9.26617e+06
9.26315e+06
9.26022e+06
9.25739e+06
9.25467e+06
9.25206e+06
8.97379e+06
8.74057e+06
8.55638e+06
8.4151e+06
8.30834e+06
8.22832e+06
8.1686e+06
8.12417e+06
8.09118e+06
8.06675e+06
8.0487e+06
8.03538e+06
8.02557e+06
8.01835e+06
8.01303e+06
8.00908e+06
8.0061e+06
8.00378e+06
8.00189e+06
8.00001e+06
SCALARS Fluid_Pressure_Exact double
LOOKUP_TABLE default
1.28958e+07
1.27404e+07
1.2585e+07
1.24296e+07
1.22741e+07
1.21187e+07
1.19633e+07
1.18079e+07
1.16524e+07
1.1497e+07
1.13416e+07
1.11862e+07
1.10308e+07
1.08753e+07
1.07199e+07
1.05645e+07
1.04091e+07
1.02536e+07
1.00982e+07
9.94279e+06
9.78737e+06
9.63194e+06
9.47652e+06
9.3211e+06
9.16567e+06
9.01025e+06
8.85483e+06
8.6994e+06
8.54398e+06
8.38856e+06
8.23313e+06
8.07771e+06
VECTORS FluidFlux double
0 3.69097e-09 0.0
0 3.61224e-09 0.0
0 3.53242e-09 0.0
0 3.45078e-09 0.0
0 3.36658e-09 0.0
0 3.27907e-09 0.0
0 3.18748e-09 0.0
0 3.091e-09 0.0
0 2.98881e-09 0.0
0 2.88005e-09 0.0
0 2.76382e-09 0.0
0 2.63915e-09 0.0
0 2.35986e-09 0.0
0 1.91584e-09 0.0
0 1.48783e-09 0.0
0 1.13034e-09 0.0
0 8.49192e-10 0.0
0 6.34228e-10 0.0
0 4.72075e-10 0.0
0 3.50554e-10 0.0
0 2.59786e-10 0.0
0 1.92136e-10 0.0
0 1.41821e-10 0.0
0 1.04497e-10 0.0
0 7.69135e-11 0.0
0 5.66422e-11 0.0
0 4.18764e-11 0.0
0 3.12819e-11 0.0
0 2.38874e-11 0.0
0 1.90057e-11 0.0
0 1.61778e-11 0.0
0 1.52298e-11 0.0
SCALARS Porosity double
LOOKUP_TABLE default
0.16
0.16
0.16
0.16
0.16
0.16
0.16
0.16
0.16
0.16
0.16
0.16
0.16
0.16
0.16
0.16
0.16
0.16
0.16
0.16
0.16
0.16
0.16
0.16
0.16
0.16
0.16
0.16
0.16
0.16
0.16
0.16
SCALARS Cell_Number double
LOOKUP_TABLE default
0
1
2
3
4
5
6
7
8
9
10
11
12
13
14
15
16
17
18
19
20
21
22
23
24
25
26
27
28
29
30
31
VECTORS Permeability double
1 0.695053 0.0
1 0.390088 0.0
1 0.390051 0.0
1 0.390015 0.0
1 0.38998 0.0
1 0.389946 0.0
1 0.389913 0.0
1 0.389881 0.0
1 0.38985 0.0
1 0.389821 0.0
1 0.389043 0.0
1 0.195874 0.0
1 0.00345946 0.0
1 0.0034415 0.0
1 0.00342771 0.0
1 0.00341729 0.0
1 0.00340948 0.0
1 0.00340367 0.0
1 0.00339934 0.0
1 0.00339613 0.0
1 0.00339376 0.0
1 0.00339201 0.0
1 0.00339071 0.0
1 0.00338976 0.0
1 0.00338906 0.0
1 0.00338854 0.0
1 0.00338816 0.0
1 0.00338787 0.0
1 0.00338764 0.0
1 0.00338745 0.0
1 0.00321737 0.0
1 0.00152369 0.0
VECTORS indp double
0 0.5 0
0 1 0
0 1 0
0 1 0
0 1 0
0 1 0
0 1 0
0 1 0
0 1 0
0 1 0
0 1 0
0 0.5 0
0 0 0
0 0 0
0 0 0
0 0 0
0 0 0
0 0 0
0 0 0
0 0 0
0 0 0
0 0 0
0 0 0
0 0 0
0 0 0
0 0 0
0 0 0
0 0 0
0 0 0
0 0 0
0 0 0
0 0 0
