# vtk DataFile Version 3.0

ASCII
DATASET STRUCTURED_GRID
DIMENSIONS 2 33 1
POINTS 66 DOUBLE
0 0 0.0
0.012 0 0.0
0 0.000375 0.0
0.012 0.000375 0.0
0 0.00075 0.0
0.012 0.00075 0.0
0 0.001125 0.0
0.012 0.001125 0.0
0 0.0015 0.0
0.012 0.0015 0.0
0 0.001875 0.0
0.012 0.001875 0.0
0 0.00225 0.0
0.012 0.00225 0.0
0 0.002625 0.0
0.012 0.002625 0.0
0 0.003 0.0
0.012 0.003 0.0
0 0.003375 0.0
0.012 0.003375 0.0
0 0.00375 0.0
0.012 0.00375 0.0
0 0.004125 0.0
0.012 0.004125 0.0
0 0.0045 0.0
0.012 0.0045 0.0
0 0.004875 0.0
0.012 0.004875 0.0
0 0.00525 0.0
0.012 0.00525 0.0
0 0.005625 0.0
0.012 0.005625 0.0
0 0.006 0.0
0.012 0.006 0.0
0 0.006375 0.0
0.012 0.006375 0.0
0 0.00675 0.0
0.012 0.00675 0.0
0 0.007125 0.0
0.012 0.007125 0.0
0 0.0075 0.0
0.012 0.0075 0.0
0 0.007875 0.0
0.012 0.007875 0.0
0 0.00825 0.0
0.012 0.00825 0.0
0 0.008625 0.0
0.012 0.008625 0.0
0 0.009 0.0
0.012 0.009 0.0
0 0.009375 0.0
0.012 0.009375 0.0
0 0.00975 0.0
0.012 0.00975 0.0
0 0.010125 0.0
0.012 0.010125 0.0
0 0.0105 0.0
0.012 0.0105 0.0
0 0.010875 0.0
0.012 0.010875 0.0
0 0.01125 0.0
0.012 0.01125 0.0
0 0.011625 0.0
0.012 0.011625 0.0
0 0.012 0.0
0.012 0.012 0.0
CELL_DATA 32
SCALARS Fluid_Pressure double
LOOKUP_TABLE default
9.2797e+06
9.27608e+06
9.27243e+06
9.26875e+06
9.26503e+06
9.26128e+06
9.25749e+06
9.25366e+06
9.24979e+06
9.24586e+06
9.24188e+06
9.23784e+06
9.23372e+06
8.90965e+06
8.67378e+06
8.49969e+06
8.37045e+06
8.27431e+06
8.20279e+06
8.14961e+06
8.11012e+06
8.08084e+06
8.05916e+06
8.04313e+06
8.03129e+06
8.02255e+06
8.01607e+06
8.01124e+06
8.00758e+06
8.00471e+06
8.00235e+06
8.00001e+06
SCALARS Fluid_Pressure_Exact double
LOOKUP_TABLE default
1.28958e+07
1.27404e+07
1.2585e+07
1.24296e+07
1.22741e+07
1.21187e+07
1.19633e+07
1.18079e+07
1.16524e+07
1.1497e+07
1.13416e+07
1.11862e+07
1.10308e+07
1.08753e+07
1.07199e+07
1.05645e+07
1.04091e+07
1.02536e+07
1.00982e+07
9.94279e+06
9.78737e+06
9.63194e+06
9.47652e+06
9.3211e+06
9.16567e+06
9.01025e+06
8.85483e+06
8.6994e+06
8.54398e+06
8.38856e+06
8.23313e+06
8.07771e+06
VECTORS FluidFlux double
0 3.74575e-09 0.0
0 3.7772e-09 0.0
0 3.80943e-09 0.0
0 3.84297e-09 0.0
0 3.87835e-09 0.0
0 3.91615e-09 0.0
0 3.95694e-09 0.0
0 4.00136e-09 0.0
0 4.05007e-09 0.0
0 4.10377e-09 0.0
0 4.16325e-09 0.0
0 4.22928e-09 0.0
0 3.62842e-09 0.0
0 2.57933e-09 0.0
0 1.87879e-09 0.0
0 1.38483e-09 0.0
0 1.02608e-09 0.0
0 7.61725e-10 0.0
0 5.65651e-10 0.0
0 4.19833e-10 0.0
0 3.11301e-10 0.0
0 2.30538e-10 0.0
0 1.705e-10 0.0
0 1.25954e-10 0.0
0 9.30051e-11 0.0
0 6.87584e-11 0.0
0 5.10664e-11 0.0
0 3.83471e-11 0.0
0 2.94518e-11 0.0
0 2.35686e-11 0.0
0 2.01557e-11 0.0
0 1.90108e-11 0.0
SCALARS Porosity double
LOOKUP_TABLE default
0.16
0.16
0.16
0.16
0.16
0.16
0.16
0.16
0.16
0.16
0.16
0.16
0.16
0.16
0.16
0.16
0.16
0.16
0.16
0.16
0.16
0.16
0.16
0.16
0.16
0.16
0.16
0.16
0.16
0.16
0.16
0.16
SCALARS Cell_Number double
LOOKUP_TABLE default
0
1
2
3
4
5
6
7
8
9
10
11
12
13
14
15
16
17
18
19
20
21
22
23
24
25
26
27
28
29
30
31
VECTORS Permeability double
1 0.695017 0.0
1 0.390014 0.0
1 0.389974 0.0
1 0.389933 0.0
1 0.389892 0.0
1 0.389851 0.0
1 0.389809 0.0
1 0.389767 0.0
1 0.389724 0.0
1 0.389681 0.0
1 0.389637 0.0
1 0.388723 0.0
1 0.195648 0.0
1 0.0034533 0.0
1 0.00343609 0.0
1 0.00342339 0.0
1 0.00341398 0.0
1 0.003407 0.0
1 0.00340182 0.0
1 0.00339797 0.0
1 0.00339513 0.0
1 0.00339302 0.0
1 0.00339146 0.0
1 0.00339031 0.0
1 0.00338946 0.0
1 0.00338883 0.0
1 0.00338836 0.0
1 0.00338801 0.0
1 0.00338773 0.0
1 0.00338749 0.0
1 0.00321738 0.0
1 0.00152369 0.0
VECTORS indp double
0 0.5 0
0 1 0
0 1 0
0 1 0
0 1 0
0 1 0
0 1 0
0 1 0
0 1 0
0 1 0
0 1 0
0 1 0
0 0.5 0
0 0 0
0 0 0
0 0 0
0 0 0
0 0 0
0 0 0
0 0 0
0 0 0
0 0 0
0 0 0
0 0 0
0 0 0
0 0 0
0 0 0
0 0 0
0 0 0
0 0 0
0 0 0
0 0 0
