# vtk DataFile Version 3.0

ASCII
DATASET STRUCTURED_GRID
DIMENSIONS 2 33 1
POINTS 66 DOUBLE
0 0 0.0
0.012 0 0.0
0 0.000375 0.0
0.012 0.000375 0.0
0 0.00075 0.0
0.012 0.00075 0.0
0 0.001125 0.0
0.012 0.001125 0.0
0 0.0015 0.0
0.012 0.0015 0.0
0 0.001875 0.0
0.012 0.001875 0.0
0 0.00225 0.0
0.012 0.00225 0.0
0 0.002625 0.0
0.012 0.002625 0.0
0 0.003 0.0
0.012 0.003 0.0
0 0.003375 0.0
0.012 0.003375 0.0
0 0.00375 0.0
0.012 0.00375 0.0
0 0.004125 0.0
0.012 0.004125 0.0
0 0.0045 0.0
0.012 0.0045 0.0
0 0.004875 0.0
0.012 0.004875 0.0
0 0.00525 0.0
0.012 0.00525 0.0
0 0.005625 0.0
0.012 0.005625 0.0
0 0.006 0.0
0.012 0.006 0.0
0 0.006375 0.0
0.012 0.006375 0.0
0 0.00675 0.0
0.012 0.00675 0.0
0 0.007125 0.0
0.012 0.007125 0.0
0 0.0075 0.0
0.012 0.0075 0.0
0 0.007875 0.0
0.012 0.007875 0.0
0 0.00825 0.0
0.012 0.00825 0.0
0 0.008625 0.0
0.012 0.008625 0.0
0 0.009 0.0
0.012 0.009 0.0
0 0.009375 0.0
0.012 0.009375 0.0
0 0.00975 0.0
0.012 0.00975 0.0
0 0.010125 0.0
0.012 0.010125 0.0
0 0.0105 0.0
0.012 0.0105 0.0
0 0.010875 0.0
0.012 0.010875 0.0
0 0.01125 0.0
0.012 0.01125 0.0
0 0.011625 0.0
0.012 0.011625 0.0
0 0.012 0.0
0.012 0.012 0.0
CELL_DATA 32
SCALARS Fluid_Pressure double
LOOKUP_TABLE default
9.2922e+06
9.28871e+06
9.28534e+06
9.28207e+06
9.27891e+06
9.27587e+06
9.27294e+06
9.27013e+06
9.26745e+06
9.26489e+06
8.99455e+06
8.76531e+06
8.58095e+06
8.43685e+06
8.32615e+06
8.24207e+06
8.17875e+06
8.13138e+06
8.09614e+06
8.07005e+06
8.05082e+06
8.03671e+06
8.0264e+06
8.01889e+06
8.01345e+06
8.0095e+06
8.00664e+06
8.00456e+06
8.00302e+06
8.00186e+06
8.00092e+06
8.00001e+06
SCALARS Fluid_Pressure_Exact double
LOOKUP_TABLE default
1.28958e+07
1.27404e+07
1.2585e+07
1.24296e+07
1.22741e+07
1.21187e+07
1.19633e+07
1.18079e+07
1.16524e+07
1.1497e+07
1.13416e+07
1.11862e+07
1.10308e+07
1.08753e+07
1.07199e+07
1.05645e+07
1.04091e+07
1.02536e+07
1.00982e+07
9.94279e+06
9.78737e+06
9.63194e+06
9.47652e+06
9.3211e+06
9.16567e+06
9.01025e+06
8.85483e+06
8.6994e+06
8.54398e+06
8.38856e+06
8.23313e+06
8.07771e+06
VECTORS FluidFlux double
0 3.67504e-09 0.0
0 3.56444e-09 0.0
0 3.45275e-09 0.0
0 3.33923e-09 0.0
0 3.22313e-09 0.0
0 3.10368e-09 0.0
0 2.98006e-09 0.0
0 2.85142e-09 0.0
0 2.71686e-09 0.0
0 2.57541e-09 0.0
0 2.30644e-09 0.0
0 1.8996e-09 0.0
0 1.50235e-09 0.0
0 1.16173e-09 0.0
0 8.85911e-10 0.0
0 6.69158e-10 0.0
0 5.01826e-10 0.0
0 3.7415e-10 0.0
0 2.77552e-10 0.0
0 2.04951e-10 0.0
0 1.50691e-10 0.0
0 1.10344e-10 0.0
0 8.04899e-11 0.0
0 5.85095e-11 0.0
0 4.24168e-11 0.0
0 3.07155e-11 0.0
0 2.22884e-11 0.0
0 1.63103e-11 0.0
0 1.21822e-11 0.0
0 9.4818e-12 0.0
0 7.92805e-12 0.0
0 7.40907e-12 0.0
SCALARS Porosity double
LOOKUP_TABLE default
0.16
0.16
0.16
0.16
0.16
0.16
0.16
0.16
0.16
0.16
0.16
0.16
0.16
0.16
0.16
0.16
0.16
0.16
0.16
0.16
0.16
0.16
0.16
0.16
0.16
0.16
0.16
0.16
0.16
0.16
0.16
0.16
SCALARS Cell_Number double
LOOKUP_TABLE default
0
1
2
3
4
5
6
7
8
9
10
11
12
13
14
15
16
17
18
19
20
21
22
23
24
25
26
27
28
29
30
31
VECTORS Permeability double
1 0.695087 0.0
1 0.390156 0.0
1 0.39012 0.0
1 0.390085 0.0
1 0.390052 0.0
1 0.39002 0.0
1 0.38999 0.0
1 0.38996 0.0
1 0.389204 0.0
1 0.195967 0.0
1 0.00346176 0.0
1 0.00344381 0.0
1 0.00342977 0.0
1 0.00341899 0.0
1 0.00341081 0.0
1 0.00340465 0.0
1 0.00340004 0.0
1 0.00339662 0.0
1 0.00339408 0.0
1 0.00339222 0.0
1 0.00339084 0.0
1 0.00338984 0.0
1 0.00338911 0.0
1 0.00338858 0.0
1 0.0033882 0.0
1 0.00338792 0.0
1 0.00338772 0.0
1 0.00338757 0.0
1 0.00338745 0.0
1 0.00338736 0.0
1 0.00321735 0.0
1 0.00152369 0.0
VECTORS indp double
0 0.5 0
0 1 0
0 1 0
0 1 0
0 1 0
0 1 0
0 1 0
0 1 0
0 1 0
0 0.5 0
0 0 0
0 0 0
0 0 0
0 0 0
0 0 0
0 0 0
0 0 0
0 0 0
0 0 0
0 0 0
0 0 0
0 0 0
0 0 0
0 0 0
0 0 0
0 0 0
0 0 0
0 0 0
0 0 0
0 0 0
0 0 0
0 0 0
