# vtk DataFile Version 3.0

ASCII
DATASET STRUCTURED_GRID
DIMENSIONS 2 33 1
POINTS 66 DOUBLE
0 0 0.0
0.012 0 0.0
0 0.000375 0.0
0.012 0.000375 0.0
0 0.00075 0.0
0.012 0.00075 0.0
0 0.001125 0.0
0.012 0.001125 0.0
0 0.0015 0.0
0.012 0.0015 0.0
0 0.001875 0.0
0.012 0.001875 0.0
0 0.00225 0.0
0.012 0.00225 0.0
0 0.002625 0.0
0.012 0.002625 0.0
0 0.003 0.0
0.012 0.003 0.0
0 0.003375 0.0
0.012 0.003375 0.0
0 0.00375 0.0
0.012 0.00375 0.0
0 0.004125 0.0
0.012 0.004125 0.0
0 0.0045 0.0
0.012 0.0045 0.0
0 0.004875 0.0
0.012 0.004875 0.0
0 0.00525 0.0
0.012 0.00525 0.0
0 0.005625 0.0
0.012 0.005625 0.0
0 0.006 0.0
0.012 0.006 0.0
0 0.006375 0.0
0.012 0.006375 0.0
0 0.00675 0.0
0.012 0.00675 0.0
0 0.007125 0.0
0.012 0.007125 0.0
0 0.0075 0.0
0.012 0.0075 0.0
0 0.007875 0.0
0.012 0.007875 0.0
0 0.00825 0.0
0.012 0.00825 0.0
0 0.008625 0.0
0.012 0.008625 0.0
0 0.009 0.0
0.012 0.009 0.0
0 0.009375 0.0
0.012 0.009375 0.0
0 0.00975 0.0
0.012 0.00975 0.0
0 0.010125 0.0
0.012 0.010125 0.0
0 0.0105 0.0
0.012 0.0105 0.0
0 0.010875 0.0
0.012 0.010875 0.0
0 0.01125 0.0
0.012 0.01125 0.0
0 0.011625 0.0
0.012 0.011625 0.0
0 0.012 0.0
0.012 0.012 0.0
CELL_DATA 32
SCALARS Fluid_Pressure double
LOOKUP_TABLE default
9.30924e+06
9.30571e+06
9.30223e+06
9.29881e+06
9.29545e+06
9.29215e+06
9.2889e+06
9.28572e+06
9.2826e+06
9.27955e+06
9.27657e+06
9.27367e+06
9.27084e+06
9.26809e+06
9.26543e+06
9.26287e+06
9.2604e+06
8.99616e+06
8.77073e+06
8.5886e+06
8.44562e+06
8.33524e+06
8.25088e+06
8.18683e+06
8.13837e+06
8.10172e+06
8.07391e+06
8.05262e+06
8.03604e+06
8.0227e+06
8.01142e+06
8.00004e+06
SCALARS Fluid_Pressure_Exact double
LOOKUP_TABLE default
1.28958e+07
1.27404e+07
1.2585e+07
1.24296e+07
1.22741e+07
1.21187e+07
1.19633e+07
1.18079e+07
1.16524e+07
1.1497e+07
1.13416e+07
1.11862e+07
1.10308e+07
1.08753e+07
1.07199e+07
1.05645e+07
1.04091e+07
1.02536e+07
1.00982e+07
9.94279e+06
9.78737e+06
9.63194e+06
9.47652e+06
9.3211e+06
9.16567e+06
9.01025e+06
8.85483e+06
8.6994e+06
8.54398e+06
8.38856e+06
8.23313e+06
8.07771e+06
VECTORS FluidFlux double
0 3.70131e-09 0.0
0 3.64344e-09 0.0
0 3.58509e-09 0.0
0 3.52591e-09 0.0
0 3.46558e-09 0.0
0 3.40374e-09 0.0
0 3.34004e-09 0.0
0 3.27409e-09 0.0
0 3.20549e-09 0.0
0 3.13381e-09 0.0
0 3.0586e-09 0.0
0 2.97937e-09 0.0
0 2.89558e-09 0.0
0 2.80667e-09 0.0
0 2.712e-09 0.0
0 2.61091e-09 0.0
0 2.50262e-09 0.0
0 2.26096e-09 0.0
0 1.8722e-09 0.0
0 1.48735e-09 0.0
0 1.15547e-09 0.0
0 8.85955e-10 0.0
0 6.73886e-10 0.0
0 5.10189e-10 0.0
0 3.85535e-10 0.0
0 2.91724e-10 0.0
0 2.22035e-10 0.0
0 1.71197e-10 0.0
0 1.35219e-10 0.0
0 1.11201e-10 0.0
0 9.71774e-11 0.0
0 9.24575e-11 0.0
SCALARS Porosity double
LOOKUP_TABLE default
0.16
0.16
0.16
0.16
0.16
0.16
0.16
0.16
0.16
0.16
0.16
0.16
0.16
0.16
0.16
0.16
0.16
0.16
0.16
0.16
0.16
0.16
0.16
0.16
0.16
0.16
0.16
0.16
0.16
0.16
0.16
0.16
SCALARS Cell_Number double
LOOKUP_TABLE default
0
1
2
3
4
5
6
7
8
9
10
11
12
13
14
15
16
17
18
19
20
21
22
23
24
25
26
27
28
29
30
31
VECTORS Permeability double
1 0.695179 0.0
1 0.39034 0.0
1 0.390303 0.0
1 0.390266 0.0
1 0.39023 0.0
1 0.390194 0.0
1 0.39016 0.0
1 0.390126 0.0
1 0.390092 0.0
1 0.39006 0.0
1 0.390028 0.0
1 0.389997 0.0
1 0.389967 0.0
1 0.389938 0.0
1 0.38991 0.0
1 0.389171 0.0
1 0.195959 0.0
1 0.00346224 0.0
1 0.00344452 0.0
1 0.00343059 0.0
1 0.00341985 0.0
1 0.00341164 0.0
1 0.00340541 0.0
1 0.0034007 0.0
1 0.00339714 0.0
1 0.00339444 0.0
1 0.00339238 0.0
1 0.00339077 0.0
1 0.00338947 0.0
1 0.00338835 0.0
1 0.0032176 0.0
1 0.00152369 0.0
VECTORS indp double
0 0.5 0
0 1 0
0 1 0
0 1 0
0 1 0
0 1 0
0 1 0
0 1 0
0 1 0
0 1 0
0 1 0
0 1 0
0 1 0
0 1 0
0 1 0
0 1 0
0 0.5 0
0 0 0
0 0 0
0 0 0
0 0 0
0 0 0
0 0 0
0 0 0
0 0 0
0 0 0
0 0 0
0 0 0
0 0 0
0 0 0
0 0 0
0 0 0
