# vtk DataFile Version 3.0

ASCII
DATASET STRUCTURED_GRID
DIMENSIONS 2 33 1
POINTS 66 DOUBLE
0 0 0.0
0.012 0 0.0
0 0.000375 0.0
0.012 0.000375 0.0
0 0.00075 0.0
0.012 0.00075 0.0
0 0.001125 0.0
0.012 0.001125 0.0
0 0.0015 0.0
0.012 0.0015 0.0
0 0.001875 0.0
0.012 0.001875 0.0
0 0.00225 0.0
0.012 0.00225 0.0
0 0.002625 0.0
0.012 0.002625 0.0
0 0.003 0.0
0.012 0.003 0.0
0 0.003375 0.0
0.012 0.003375 0.0
0 0.00375 0.0
0.012 0.00375 0.0
0 0.004125 0.0
0.012 0.004125 0.0
0 0.0045 0.0
0.012 0.0045 0.0
0 0.004875 0.0
0.012 0.004875 0.0
0 0.00525 0.0
0.012 0.00525 0.0
0 0.005625 0.0
0.012 0.005625 0.0
0 0.006 0.0
0.012 0.006 0.0
0 0.006375 0.0
0.012 0.006375 0.0
0 0.00675 0.0
0.012 0.00675 0.0
0 0.007125 0.0
0.012 0.007125 0.0
0 0.0075 0.0
0.012 0.0075 0.0
0 0.007875 0.0
0.012 0.007875 0.0
0 0.00825 0.0
0.012 0.00825 0.0
0 0.008625 0.0
0.012 0.008625 0.0
0 0.009 0.0
0.012 0.009 0.0
0 0.009375 0.0
0.012 0.009375 0.0
0 0.00975 0.0
0.012 0.00975 0.0
0 0.010125 0.0
0.012 0.010125 0.0
0 0.0105 0.0
0.012 0.0105 0.0
0 0.010875 0.0
0.012 0.010875 0.0
0 0.01125 0.0
0.012 0.01125 0.0
0 0.011625 0.0
0.012 0.011625 0.0
0 0.012 0.0
0.012 0.012 0.0
CELL_DATA 32
SCALARS Fluid_Pressure double
LOOKUP_TABLE default
8.85724e+06
8.5585e+06
8.35169e+06
8.21541e+06
8.12898e+06
8.07579e+06
8.04384e+06
8.02502e+06
8.01412e+06
8.00789e+06
8.00437e+06
8.0024e+06
8.00131e+06
8.00071e+06
8.00038e+06
8.00021e+06
8.00011e+06
8.00006e+06
8.00003e+06
8.00002e+06
8.00001e+06
8e+06
8e+06
8e+06
8e+06
8e+06
8e+06
8e+06
8e+06
8e+06
8e+06
8e+06
SCALARS Fluid_Pressure_Exact double
LOOKUP_TABLE default
1.28958e+07
1.27404e+07
1.2585e+07
1.24296e+07
1.22741e+07
1.21187e+07
1.19633e+07
1.18079e+07
1.16524e+07
1.1497e+07
1.13416e+07
1.11862e+07
1.10308e+07
1.08753e+07
1.07199e+07
1.05645e+07
1.04091e+07
1.02536e+07
1.00982e+07
9.94279e+06
9.78737e+06
9.63194e+06
9.47652e+06
9.3211e+06
9.16567e+06
9.01025e+06
8.85483e+06
8.6994e+06
8.54398e+06
8.38856e+06
8.23313e+06
8.07771e+06
VECTORS FluidFlux double
0 3.23159e-09 0.0
0 2.30798e-09 0.0
0 1.55993e-09 0.0
0 1.00992e-09 0.0
0 6.32078e-10 0.0
0 3.85044e-10 0.0
0 2.29455e-10 0.0
0 1.34272e-10 0.0
0 7.73802e-11 0.0
0 4.40156e-11 0.0
0 2.47552e-11 0.0
0 1.3784e-11 0.0
0 7.60549e-12 0.0
0 4.16018e-12 0.0
0 2.25549e-12 0.0
0 1.2105e-12 0.0
0 6.41028e-13 0.0
0 3.32563e-13 0.0
0 1.66379e-13 0.0
0 7.72815e-14 0.0
0 2.97144e-14 0.0
0 4.40239e-15 0.0
0 -9.05161e-15 0.0
0 -1.62362e-14 0.0
0 -2.01533e-14 0.0
0 -2.24234e-14 0.0
0 -2.39327e-14 0.0
0 -2.51703e-14 0.0
0 -2.63857e-14 0.0
0 -2.76288e-14 0.0
0 -2.87182e-14 0.0
0 -2.9187e-14 0.0
SCALARS Porosity double
LOOKUP_TABLE default
0.16
0.16
0.16
0.16
0.16
0.16
0.16
0.16
0.16
0.16
0.16
0.16
0.16
0.16
0.16
0.16
0.16
0.16
0.16
0.16
0.16
0.16
0.16
0.16
0.16
0.16
0.16
0.16
0.16
0.16
0.16
0.16
SCALARS Cell_Number double
LOOKUP_TABLE default
0
1
2
3
4
5
6
7
8
9
10
11
12
13
14
15
16
17
18
19
20
21
22
23
24
25
26
27
28
29
30
31
VECTORS Permeability double
1 0.501715 0.0
1 0.0034225 0.0
1 0.00340896 0.0
1 0.00340032 0.0
1 0.00339497 0.0
1 0.00339174 0.0
1 0.00338983 0.0
1 0.00338872 0.0
1 0.00338808 0.0
1 0.00338772 0.0
1 0.00338752 0.0
1 0.00338741 0.0
1 0.00338734 0.0
1 0.00338731 0.0
1 0.00338729 0.0
1 0.00338728 0.0
1 0.00338728 0.0
1 0.00338727 0.0
1 0.00338727 0.0
1 0.00338727 0.0
1 0.00338727 0.0
1 0.00338727 0.0
1 0.00338727 0.0
1 0.00338727 0.0
1 0.00338727 0.0
1 0.00338727 0.0
1 0.00338727 0.0
1 0.00338727 0.0
1 0.00338727 0.0
1 0.00338727 0.0
1 0.00321733 0.0
1 0.00152369 0.0
VECTORS indp double
0 0 0
0 0 0
0 0 0
0 0 0
0 0 0
0 0 0
0 0 0
0 0 0
0 0 0
0 0 0
0 0 0
0 0 0
0 0 0
0 0 0
0 0 0
0 0 0
0 0 0
0 0 0
0 0 0
0 0 0
0 0 0
0 0 0
0 0 0
0 0 0
0 0 0
0 0 0
0 0 0
0 0 0
0 0 0
0 0 0
0 0 0
0 0 0
