# vtk DataFile Version 3.0

ASCII
DATASET STRUCTURED_GRID
DIMENSIONS 2 33 1
POINTS 66 DOUBLE
0 0 0.0
0.012 0 0.0
0 0.000375 0.0
0.012 0.000375 0.0
0 0.00075 0.0
0.012 0.00075 0.0
0 0.001125 0.0
0.012 0.001125 0.0
0 0.0015 0.0
0.012 0.0015 0.0
0 0.001875 0.0
0.012 0.001875 0.0
0 0.00225 0.0
0.012 0.00225 0.0
0 0.002625 0.0
0.012 0.002625 0.0
0 0.003 0.0
0.012 0.003 0.0
0 0.003375 0.0
0.012 0.003375 0.0
0 0.00375 0.0
0.012 0.00375 0.0
0 0.004125 0.0
0.012 0.004125 0.0
0 0.0045 0.0
0.012 0.0045 0.0
0 0.004875 0.0
0.012 0.004875 0.0
0 0.00525 0.0
0.012 0.00525 0.0
0 0.005625 0.0
0.012 0.005625 0.0
0 0.006 0.0
0.012 0.006 0.0
0 0.006375 0.0
0.012 0.006375 0.0
0 0.00675 0.0
0.012 0.00675 0.0
0 0.007125 0.0
0.012 0.007125 0.0
0 0.0075 0.0
0.012 0.0075 0.0
0 0.007875 0.0
0.012 0.007875 0.0
0 0.00825 0.0
0.012 0.00825 0.0
0 0.008625 0.0
0.012 0.008625 0.0
0 0.009 0.0
0.012 0.009 0.0
0 0.009375 0.0
0.012 0.009375 0.0
0 0.00975 0.0
0.012 0.00975 0.0
0 0.010125 0.0
0.012 0.010125 0.0
0 0.0105 0.0
0.012 0.0105 0.0
0 0.010875 0.0
0.012 0.010875 0.0
0 0.01125 0.0
0.012 0.01125 0.0
0 0.011625 0.0
0.012 0.011625 0.0
0 0.012 0.0
0.012 0.012 0.0
CELL_DATA 32
SCALARS Fluid_Pressure double
LOOKUP_TABLE default
9.30561e+06
9.30201e+06
9.29841e+06
9.29479e+06
9.29116e+06
9.28752e+06
9.28387e+06
9.2802e+06
9.27652e+06
9.27282e+06
9.26909e+06
9.26535e+06
9.26157e+06
9.25777e+06
9.25394e+06
9.25006e+06
9.24615e+06
9.24218e+06
9.23816e+06
9.23407e+06
8.91212e+06
8.67751e+06
8.50392e+06
8.37446e+06
8.27744e+06
8.20438e+06
8.14897e+06
8.10644e+06
8.07315e+06
8.04621e+06
8.02329e+06
8.00007e+06
SCALARS Fluid_Pressure_Exact double
LOOKUP_TABLE default
1.28958e+07
1.27404e+07
1.2585e+07
1.24296e+07
1.22741e+07
1.21187e+07
1.19633e+07
1.18079e+07
1.16524e+07
1.1497e+07
1.13416e+07
1.11862e+07
1.10308e+07
1.08753e+07
1.07199e+07
1.05645e+07
1.04091e+07
1.02536e+07
1.00982e+07
9.94279e+06
9.78737e+06
9.63194e+06
9.47652e+06
9.3211e+06
9.16567e+06
9.01025e+06
8.85483e+06
8.6994e+06
8.54398e+06
8.38856e+06
8.23313e+06
8.07771e+06
VECTORS FluidFlux double
0 3.73513e-09 0.0
0 3.74517e-09 0.0
0 3.75556e-09 0.0
0 3.76652e-09 0.0
0 3.77828e-09 0.0
0 3.79109e-09 0.0
0 3.80522e-09 0.0
0 3.82094e-09 0.0
0 3.83855e-09 0.0
0 3.85835e-09 0.0
0 3.88071e-09 0.0
0 3.90598e-09 0.0
0 3.93458e-09 0.0
0 3.96696e-09 0.0
0 4.0036e-09 0.0
0 4.04504e-09 0.0
0 4.09187e-09 0.0
0 4.14474e-09 0.0
0 4.20436e-09 0.0
0 3.60468e-09 0.0
0 2.56396e-09 0.0
0 1.87096e-09 0.0
0 1.38375e-09 0.0
0 1.03116e-09 0.0
0 7.72727e-10 0.0
0 5.82739e-10 0.0
0 4.43665e-10 0.0
0 3.43138e-10 0.0
0 2.72385e-10 0.0
0 2.25301e-10 0.0
0 1.97853e-10 0.0
0 1.8862e-10 0.0
SCALARS Porosity double
LOOKUP_TABLE default
0.16
0.16
0.16
0.16
0.16
0.16
0.16
0.16
0.16
0.16
0.16
0.16
0.16
0.16
0.16
0.16
0.16
0.16
0.16
0.16
0.16
0.16
0.16
0.16
0.16
0.16
0.16
0.16
0.16
0.16
0.16
0.16
SCALARS Cell_Number double
LOOKUP_TABLE default
0
1
2
3
4
5
6
7
8
9
10
11
12
13
14
15
16
17
18
19
20
21
22
23
24
25
26
27
28
29
30
31
VECTORS Permeability double
1 0.695159 0.0
1 0.390298 0.0
1 0.390259 0.0
1 0.390219 0.0
1 0.390179 0.0
1 0.390139 0.0
1 0.390099 0.0
1 0.390059 0.0
1 0.390018 0.0
1 0.389978 0.0
1 0.389937 0.0
1 0.389896 0.0
1 0.389854 0.0
1 0.389812 0.0
1 0.38977 0.0
1 0.389727 0.0
1 0.389684 0.0
1 0.38964 0.0
1 0.388733 0.0
1 0.195655 0.0
1 0.00345365 0.0
1 0.00343648 0.0
1 0.00342376 0.0
1 0.00341426 0.0
1 0.00340713 0.0
1 0.00340174 0.0
1 0.0033976 0.0
1 0.00339437 0.0
1 0.00339175 0.0
1 0.00338947 0.0
1 0.00321788 0.0
1 0.00152369 0.0
VECTORS indp double
0 0.5 0
0 1 0
0 1 0
0 1 0
0 1 0
0 1 0
0 1 0
0 1 0
0 1 0
0 1 0
0 1 0
0 1 0
0 1 0
0 1 0
0 1 0
0 1 0
0 1 0
0 1 0
0 1 0
0 0.5 0
0 0 0
0 0 0
0 0 0
0 0 0
0 0 0
0 0 0
0 0 0
0 0 0
0 0 0
0 0 0
0 0 0
0 0 0
