# vtk DataFile Version 3.0

ASCII
DATASET STRUCTURED_GRID
DIMENSIONS 2 33 1
POINTS 66 DOUBLE
0 0 0.0
0.012 0 0.0
0 0.000375 0.0
0.012 0.000375 0.0
0 0.00075 0.0
0.012 0.00075 0.0
0 0.001125 0.0
0.012 0.001125 0.0
0 0.0015 0.0
0.012 0.0015 0.0
0 0.001875 0.0
0.012 0.001875 0.0
0 0.00225 0.0
0.012 0.00225 0.0
0 0.002625 0.0
0.012 0.002625 0.0
0 0.003 0.0
0.012 0.003 0.0
0 0.003375 0.0
0.012 0.003375 0.0
0 0.00375 0.0
0.012 0.00375 0.0
0 0.004125 0.0
0.012 0.004125 0.0
0 0.0045 0.0
0.012 0.0045 0.0
0 0.004875 0.0
0.012 0.004875 0.0
0 0.00525 0.0
0.012 0.00525 0.0
0 0.005625 0.0
0.012 0.005625 0.0
0 0.006 0.0
0.012 0.006 0.0
0 0.006375 0.0
0.012 0.006375 0.0
0 0.00675 0.0
0.012 0.00675 0.0
0 0.007125 0.0
0.012 0.007125 0.0
0 0.0075 0.0
0.012 0.0075 0.0
0 0.007875 0.0
0.012 0.007875 0.0
0 0.00825 0.0
0.012 0.00825 0.0
0 0.008625 0.0
0.012 0.008625 0.0
0 0.009 0.0
0.012 0.009 0.0
0 0.009375 0.0
0.012 0.009375 0.0
0 0.00975 0.0
0.012 0.00975 0.0
0 0.010125 0.0
0.012 0.010125 0.0
0 0.0105 0.0
0.012 0.0105 0.0
0 0.010875 0.0
0.012 0.010875 0.0
0 0.01125 0.0
0.012 0.01125 0.0
0 0.011625 0.0
0.012 0.011625 0.0
0 0.012 0.0
0.012 0.012 0.0
CELL_DATA 32
SCALARS Fluid_Pressure double
LOOKUP_TABLE default
9.31445e+06
9.3109e+06
9.3074e+06
9.30394e+06
9.30052e+06
9.29715e+06
9.29382e+06
9.29054e+06
9.2873e+06
9.28412e+06
9.28099e+06
9.27791e+06
9.27489e+06
9.27194e+06
9.26905e+06
9.26623e+06
9.26349e+06
9.26083e+06
9.25826e+06
9.25577e+06
8.98926e+06
8.76221e+06
8.57932e+06
8.43618e+06
8.32581e+06
8.24124e+06
8.17642e+06
8.12633e+06
8.08694e+06
8.05497e+06
8.02772e+06
8.00009e+06
SCALARS Fluid_Pressure_Exact double
LOOKUP_TABLE default
1.28958e+07
1.27404e+07
1.2585e+07
1.24296e+07
1.22741e+07
1.21187e+07
1.19633e+07
1.18079e+07
1.16524e+07
1.1497e+07
1.13416e+07
1.11862e+07
1.10308e+07
1.08753e+07
1.07199e+07
1.05645e+07
1.04091e+07
1.02536e+07
1.00982e+07
9.94279e+06
9.78737e+06
9.63194e+06
9.47652e+06
9.3211e+06
9.16567e+06
9.01025e+06
8.85483e+06
8.6994e+06
8.54398e+06
8.38856e+06
8.23313e+06
8.07771e+06
VECTORS FluidFlux double
0 3.70855e-09 0.0
0 3.66519e-09 0.0
0 3.62146e-09 0.0
0 3.57709e-09 0.0
0 3.53183e-09 0.0
0 3.4854e-09 0.0
0 3.43753e-09 0.0
0 3.38793e-09 0.0
0 3.33629e-09 0.0
0 3.28228e-09 0.0
0 3.22556e-09 0.0
0 3.16575e-09 0.0
0 3.10245e-09 0.0
0 3.03523e-09 0.0
0 2.96363e-09 0.0
0 2.88712e-09 0.0
0 2.80515e-09 0.0
0 2.71713e-09 0.0
0 2.62238e-09 0.0
0 2.52015e-09 0.0
0 2.27843e-09 0.0
0 1.88268e-09 0.0
0 1.49118e-09 0.0
0 1.15584e-09 0.0
0 8.86611e-10 0.0
0 6.78172e-10 0.0
0 5.20891e-10 0.0
0 4.05133e-10 0.0
0 3.22781e-10 0.0
0 2.67634e-10 0.0
0 2.35375e-10 0.0
0 2.24508e-10 0.0
SCALARS Porosity double
LOOKUP_TABLE default
0.16
0.16
0.16
0.16
0.16
0.16
0.16
0.16
0.16
0.16
0.16
0.16
0.16
0.16
0.16
0.16
0.16
0.16
0.16
0.16
0.16
0.16
0.16
0.16
0.16
0.16
0.16
0.16
0.16
0.16
0.16
0.16
SCALARS Cell_Number double
LOOKUP_TABLE default
0
1
2
3
4
5
6
7
8
9
10
11
12
13
14
15
16
17
18
19
20
21
22
23
24
25
26
27
28
29
30
31
VECTORS Permeability double
1 0.695208 0.0
1 0.390396 0.0
1 0.390359 0.0
1 0.390321 0.0
1 0.390284 0.0
1 0.390248 0.0
1 0.390212 0.0
1 0.390177 0.0
1 0.390142 0.0
1 0.390108 0.0
1 0.390074 0.0
1 0.390041 0.0
1 0.390009 0.0
1 0.389978 0.0
1 0.389947 0.0
1 0.389917 0.0
1 0.389888 0.0
1 0.38986 0.0
1 0.389115 0.0
1 0.195927 0.0
1 0.00346144 0.0
1 0.00344364 0.0
1 0.00342969 0.0
1 0.00341894 0.0
1 0.0034107 0.0
1 0.0034044 0.0
1 0.00339953 0.0
1 0.0033957 0.0
1 0.0033926 0.0
1 0.00338989 0.0
1 0.00321799 0.0
1 0.00152369 0.0
VECTORS indp double
0 0.5 0
0 1 0
0 1 0
0 1 0
0 1 0
0 1 0
0 1 0
0 1 0
0 1 0
0 1 0
0 1 0
0 1 0
0 1 0
0 1 0
0 1 0
0 1 0
0 1 0
0 1 0
0 1 0
0 0.5 0
0 0 0
0 0 0
0 0 0
0 0 0
0 0 0
0 0 0
0 0 0
0 0 0
0 0 0
0 0 0
0 0 0
0 0 0
