# vtk DataFile Version 3.0

ASCII
DATASET STRUCTURED_GRID
DIMENSIONS 2 33 1
POINTS 66 DOUBLE
0 0 0.0
0.012 0 0.0
0 0.000375 0.0
0.012 0.000375 0.0
0 0.00075 0.0
0.012 0.00075 0.0
0 0.001125 0.0
0.012 0.001125 0.0
0 0.0015 0.0
0.012 0.0015 0.0
0 0.001875 0.0
0.012 0.001875 0.0
0 0.00225 0.0
0.012 0.00225 0.0
0 0.002625 0.0
0.012 0.002625 0.0
0 0.003 0.0
0.012 0.003 0.0
0 0.003375 0.0
0.012 0.003375 0.0
0 0.00375 0.0
0.012 0.00375 0.0
0 0.004125 0.0
0.012 0.004125 0.0
0 0.0045 0.0
0.012 0.0045 0.0
0 0.004875 0.0
0.012 0.004875 0.0
0 0.00525 0.0
0.012 0.00525 0.0
0 0.005625 0.0
0.012 0.005625 0.0
0 0.006 0.0
0.012 0.006 0.0
0 0.006375 0.0
0.012 0.006375 0.0
0 0.00675 0.0
0.012 0.00675 0.0
0 0.007125 0.0
0.012 0.007125 0.0
0 0.0075 0.0
0.012 0.0075 0.0
0 0.007875 0.0
0.012 0.007875 0.0
0 0.00825 0.0
0.012 0.00825 0.0
0 0.008625 0.0
0.012 0.008625 0.0
0 0.009 0.0
0.012 0.009 0.0
0 0.009375 0.0
0.012 0.009375 0.0
0 0.00975 0.0
0.012 0.00975 0.0
0 0.010125 0.0
0.012 0.010125 0.0
0 0.0105 0.0
0.012 0.0105 0.0
0 0.010875 0.0
0.012 0.010875 0.0
0 0.01125 0.0
0.012 0.01125 0.0
0 0.011625 0.0
0.012 0.011625 0.0
0 0.012 0.0
0.012 0.012 0.0
CELL_DATA 32
SCALARS Fluid_Pressure double
LOOKUP_TABLE default
9.29744e+06
9.29384e+06
9.29023e+06
9.28661e+06
9.28298e+06
9.27933e+06
9.27567e+06
9.27199e+06
9.26828e+06
9.26456e+06
9.26081e+06
9.25703e+06
9.25321e+06
9.24936e+06
9.24546e+06
9.2415e+06
9.23748e+06
8.92025e+06
8.68766e+06
8.5143e+06
8.38421e+06
8.28643e+06
8.21296e+06
8.15781e+06
8.11642e+06
8.08531e+06
8.06182e+06
8.04392e+06
8.03003e+06
8.01889e+06
8.00949e+06
8.00003e+06
SCALARS Fluid_Pressure_Exact double
LOOKUP_TABLE default
1.28958e+07
1.27404e+07
1.2585e+07
1.24296e+07
1.22741e+07
1.21187e+07
1.19633e+07
1.18079e+07
1.16524e+07
1.1497e+07
1.13416e+07
1.11862e+07
1.10308e+07
1.08753e+07
1.07199e+07
1.05645e+07
1.04091e+07
1.02536e+07
1.00982e+07
9.94279e+06
9.78737e+06
9.63194e+06
9.47652e+06
9.3211e+06
9.16567e+06
9.01025e+06
8.85483e+06
8.6994e+06
8.54398e+06
8.38856e+06
8.23313e+06
8.07771e+06
VECTORS FluidFlux double
0 3.73561e-09 0.0
0 3.74669e-09 0.0
0 3.75827e-09 0.0
0 3.77069e-09 0.0
0 3.78431e-09 0.0
0 3.79947e-09 0.0
0 3.81658e-09 0.0
0 3.836e-09 0.0
0 3.85818e-09 0.0
0 3.88355e-09 0.0
0 3.91259e-09 0.0
0 3.94582e-09 0.0
0 3.98379e-09 0.0
0 4.02712e-09 0.0
0 4.07645e-09 0.0
0 4.13248e-09 0.0
0 3.54647e-09 0.0
0 2.53362e-09 0.0
0 1.86115e-09 0.0
0 1.38589e-09 0.0
0 1.03773e-09 0.0
0 7.78229e-10 0.0
0 5.83573e-10 0.0
0 4.3751e-10 0.0
0 3.28248e-10 0.0
0 2.46988e-10 0.0
0 1.87119e-10 0.0
0 1.437e-10 0.0
0 1.131e-10 0.0
0 9.27322e-11 0.0
0 8.08615e-11 0.0
0 7.68697e-11 0.0
SCALARS Porosity double
LOOKUP_TABLE default
0.16
0.16
0.16
0.16
0.16
0.16
0.16
0.16
0.16
0.16
0.16
0.16
0.16
0.16
0.16
0.16
0.16
0.16
0.16
0.16
0.16
0.16
0.16
0.16
0.16
0.16
0.16
0.16
0.16
0.16
0.16
0.16
SCALARS Cell_Number double
LOOKUP_TABLE default
0
1
2
3
4
5
6
7
8
9
10
11
12
13
14
15
16
17
18
19
20
21
22
23
24
25
26
27
28
29
30
31
VECTORS Permeability double
1 0.695114 0.0
1 0.390209 0.0
1 0.390169 0.0
1 0.390129 0.0
1 0.39009 0.0
1 0.39005 0.0
1 0.390009 0.0
1 0.389969 0.0
1 0.389928 0.0
1 0.389887 0.0
1 0.389846 0.0
1 0.389804 0.0
1 0.389762 0.0
1 0.38972 0.0
1 0.389676 0.0
1 0.388782 0.0
1 0.195687 0.0
1 0.00345458 0.0
1 0.00343746 0.0
1 0.00342469 0.0
1 0.00341513 0.0
1 0.00340797 0.0
1 0.0034026 0.0
1 0.00339858 0.0
1 0.00339555 0.0
1 0.00339327 0.0
1 0.00339153 0.0
1 0.00339019 0.0
1 0.0033891 0.0
1 0.00338817 0.0
1 0.00321755 0.0
1 0.00152369 0.0
VECTORS indp double
0 0.5 0
0 1 0
0 1 0
0 1 0
0 1 0
0 1 0
0 1 0
0 1 0
0 1 0
0 1 0
0 1 0
0 1 0
0 1 0
0 1 0
0 1 0
0 1 0
0 0.5 0
0 0 0
0 0 0
0 0 0
0 0 0
0 0 0
0 0 0
0 0 0
0 0 0
0 0 0
0 0 0
0 0 0
0 0 0
0 0 0
0 0 0
0 0 0
