# vtk DataFile Version 3.0

ASCII
DATASET STRUCTURED_GRID
DIMENSIONS 2 33 1
POINTS 66 DOUBLE
0 0 0.0
0.012 0 0.0
0 0.000375 0.0
0.012 0.000375 0.0
0 0.00075 0.0
0.012 0.00075 0.0
0 0.001125 0.0
0.012 0.001125 0.0
0 0.0015 0.0
0.012 0.0015 0.0
0 0.001875 0.0
0.012 0.001875 0.0
0 0.00225 0.0
0.012 0.00225 0.0
0 0.002625 0.0
0.012 0.002625 0.0
0 0.003 0.0
0.012 0.003 0.0
0 0.003375 0.0
0.012 0.003375 0.0
0 0.00375 0.0
0.012 0.00375 0.0
0 0.004125 0.0
0.012 0.004125 0.0
0 0.0045 0.0
0.012 0.0045 0.0
0 0.004875 0.0
0.012 0.004875 0.0
0 0.00525 0.0
0.012 0.00525 0.0
0 0.005625 0.0
0.012 0.005625 0.0
0 0.006 0.0
0.012 0.006 0.0
0 0.006375 0.0
0.012 0.006375 0.0
0 0.00675 0.0
0.012 0.00675 0.0
0 0.007125 0.0
0.012 0.007125 0.0
0 0.0075 0.0
0.012 0.0075 0.0
0 0.007875 0.0
0.012 0.007875 0.0
0 0.00825 0.0
0.012 0.00825 0.0
0 0.008625 0.0
0.012 0.008625 0.0
0 0.009 0.0
0.012 0.009 0.0
0 0.009375 0.0
0.012 0.009375 0.0
0 0.00975 0.0
0.012 0.00975 0.0
0 0.010125 0.0
0.012 0.010125 0.0
0 0.0105 0.0
0.012 0.0105 0.0
0 0.010875 0.0
0.012 0.010875 0.0
0 0.01125 0.0
0.012 0.01125 0.0
0 0.011625 0.0
0.012 0.011625 0.0
0 0.012 0.0
0.012 0.012 0.0
CELL_DATA 32
SCALARS Fluid_Pressure double
LOOKUP_TABLE default
9.29967e+06
9.29614e+06
9.29267e+06
9.28926e+06
9.2859e+06
9.28261e+06
9.27938e+06
9.27622e+06
9.27312e+06
9.2701e+06
9.26715e+06
9.26428e+06
9.26149e+06
9.25879e+06
9.25619e+06
9.25368e+06
8.98566e+06
8.75789e+06
8.57502e+06
8.43258e+06
8.32355e+06
8.24097e+06
8.17882e+06
8.13222e+06
8.09732e+06
8.07117e+06
8.05148e+06
8.03651e+06
8.02492e+06
8.01566e+06
8.00787e+06
8.00003e+06
SCALARS Fluid_Pressure_Exact double
LOOKUP_TABLE default
1.28958e+07
1.27404e+07
1.2585e+07
1.24296e+07
1.22741e+07
1.21187e+07
1.19633e+07
1.18079e+07
1.16524e+07
1.1497e+07
1.13416e+07
1.11862e+07
1.10308e+07
1.08753e+07
1.07199e+07
1.05645e+07
1.04091e+07
1.02536e+07
1.00982e+07
9.94279e+06
9.78737e+06
9.63194e+06
9.47652e+06
9.3211e+06
9.16567e+06
9.01025e+06
8.85483e+06
8.6994e+06
8.54398e+06
8.38856e+06
8.23313e+06
8.07771e+06
VECTORS FluidFlux double
0 3.70012e-09 0.0
0 3.63985e-09 0.0
0 3.57901e-09 0.0
0 3.51721e-09 0.0
0 3.45407e-09 0.0
0 3.38917e-09 0.0
0 3.32211e-09 0.0
0 3.25244e-09 0.0
0 3.17969e-09 0.0
0 3.10337e-09 0.0
0 3.02295e-09 0.0
0 2.93787e-09 0.0
0 2.84753e-09 0.0
0 2.75125e-09 0.0
0 2.64833e-09 0.0
0 2.53796e-09 0.0
0 2.28847e-09 0.0
0 1.88567e-09 0.0
0 1.48774e-09 0.0
0 1.14645e-09 0.0
0 8.71468e-10 0.0
0 6.5706e-10 0.0
0 4.93045e-10 0.0
0 3.69105e-10 0.0
0 2.76286e-10 0.0
0 2.07348e-10 0.0
0 1.56665e-10 0.0
0 1.19986e-10 0.0
0 9.41828e-11 0.0
0 7.7031e-11 0.0
0 6.70438e-11 0.0
0 6.36868e-11 0.0
SCALARS Porosity double
LOOKUP_TABLE default
0.16
0.16
0.16
0.16
0.16
0.16
0.16
0.16
0.16
0.16
0.16
0.16
0.16
0.16
0.16
0.16
0.16
0.16
0.16
0.16
0.16
0.16
0.16
0.16
0.16
0.16
0.16
0.16
0.16
0.16
0.16
0.16
SCALARS Cell_Number double
LOOKUP_TABLE default
0
1
2
3
4
5
6
7
8
9
10
11
12
13
14
15
16
17
18
19
20
21
22
23
24
25
26
27
28
29
30
31
VECTORS Permeability double
1 0.695127 0.0
1 0.390236 0.0
1 0.390198 0.0
1 0.390162 0.0
1 0.390126 0.0
1 0.39009 0.0
1 0.390056 0.0
1 0.390022 0.0
1 0.389989 0.0
1 0.389957 0.0
1 0.389925 0.0
1 0.389895 0.0
1 0.389866 0.0
1 0.389837 0.0
1 0.389088 0.0
1 0.195912 0.0
1 0.00346104 0.0
1 0.00344324 0.0
1 0.00342936 0.0
1 0.00341874 0.0
1 0.00341069 0.0
1 0.00340465 0.0
1 0.00340011 0.0
1 0.00339672 0.0
1 0.00339418 0.0
1 0.00339227 0.0
1 0.00339082 0.0
1 0.00338969 0.0
1 0.00338879 0.0
1 0.00338802 0.0
1 0.00321752 0.0
1 0.00152369 0.0
VECTORS indp double
0 0.5 0
0 1 0
0 1 0
0 1 0
0 1 0
0 1 0
0 1 0
0 1 0
0 1 0
0 1 0
0 1 0
0 1 0
0 1 0
0 1 0
0 1 0
0 0.5 0
0 0 0
0 0 0
0 0 0
0 0 0
0 0 0
0 0 0
0 0 0
0 0 0
0 0 0
0 0 0
0 0 0
0 0 0
0 0 0
0 0 0
0 0 0
0 0 0
