# vtk DataFile Version 3.0

ASCII
DATASET STRUCTURED_GRID
DIMENSIONS 2 33 1
POINTS 66 DOUBLE
0 0 0.0
0.012 0 0.0
0 0.000375 0.0
0.012 0.000375 0.0
0 0.00075 0.0
0.012 0.00075 0.0
0 0.001125 0.0
0.012 0.001125 0.0
0 0.0015 0.0
0.012 0.0015 0.0
0 0.001875 0.0
0.012 0.001875 0.0
0 0.00225 0.0
0.012 0.00225 0.0
0 0.002625 0.0
0.012 0.002625 0.0
0 0.003 0.0
0.012 0.003 0.0
0 0.003375 0.0
0.012 0.003375 0.0
0 0.00375 0.0
0.012 0.00375 0.0
0 0.004125 0.0
0.012 0.004125 0.0
0 0.0045 0.0
0.012 0.0045 0.0
0 0.004875 0.0
0.012 0.004875 0.0
0 0.00525 0.0
0.012 0.00525 0.0
0 0.005625 0.0
0.012 0.005625 0.0
0 0.006 0.0
0.012 0.006 0.0
0 0.006375 0.0
0.012 0.006375 0.0
0 0.00675 0.0
0.012 0.00675 0.0
0 0.007125 0.0
0.012 0.007125 0.0
0 0.0075 0.0
0.012 0.0075 0.0
0 0.007875 0.0
0.012 0.007875 0.0
0 0.00825 0.0
0.012 0.00825 0.0
0 0.008625 0.0
0.012 0.008625 0.0
0 0.009 0.0
0.012 0.009 0.0
0 0.009375 0.0
0.012 0.009375 0.0
0 0.00975 0.0
0.012 0.00975 0.0
0 0.010125 0.0
0.012 0.010125 0.0
0 0.0105 0.0
0.012 0.0105 0.0
0 0.010875 0.0
0.012 0.010875 0.0
0 0.01125 0.0
0.012 0.01125 0.0
0 0.011625 0.0
0.012 0.011625 0.0
0 0.012 0.0
0.012 0.012 0.0
CELL_DATA 32
SCALARS Fluid_Pressure double
LOOKUP_TABLE default
9.28738e+06
9.28378e+06
9.28015e+06
9.2765e+06
9.27283e+06
9.26914e+06
9.26542e+06
9.26168e+06
9.25791e+06
9.2541e+06
9.25026e+06
9.24637e+06
9.24245e+06
9.23847e+06
9.23443e+06
9.23031e+06
8.90701e+06
8.67182e+06
8.49836e+06
8.36968e+06
8.27401e+06
8.20284e+06
8.14989e+06
8.11047e+06
8.08111e+06
8.05919e+06
8.04273e+06
8.03026e+06
8.02063e+06
8.01295e+06
8.0065e+06
8.00002e+06
SCALARS Fluid_Pressure_Exact double
LOOKUP_TABLE default
1.28958e+07
1.27404e+07
1.2585e+07
1.24296e+07
1.22741e+07
1.21187e+07
1.19633e+07
1.18079e+07
1.16524e+07
1.1497e+07
1.13416e+07
1.11862e+07
1.10308e+07
1.08753e+07
1.07199e+07
1.05645e+07
1.04091e+07
1.02536e+07
1.00982e+07
9.94279e+06
9.78737e+06
9.63194e+06
9.47652e+06
9.3211e+06
9.16567e+06
9.01025e+06
8.85483e+06
8.6994e+06
8.54398e+06
8.38856e+06
8.23313e+06
8.07771e+06
VECTORS FluidFlux double
0 3.74008e-09 0.0
0 3.7601e-09 0.0
0 3.78067e-09 0.0
0 3.80214e-09 0.0
0 3.8249e-09 0.0
0 3.84933e-09 0.0
0 3.87585e-09 0.0
0 3.9049e-09 0.0
0 3.93694e-09 0.0
0 3.97247e-09 0.0
0 4.01202e-09 0.0
0 4.0562e-09 0.0
0 4.10562e-09 0.0
0 4.16098e-09 0.0
0 4.22302e-09 0.0
0 3.6207e-09 0.0
0 2.57253e-09 0.0
0 1.87269e-09 0.0
0 1.37938e-09 0.0
0 1.02139e-09 0.0
0 7.57975e-10 0.0
0 5.63031e-10 0.0
0 4.18482e-10 0.0
0 3.11317e-10 0.0
0 2.32008e-10 0.0
0 1.73538e-10 0.0
0 1.3075e-10 0.0
0 9.98732e-11 0.0
0 7.81904e-11 0.0
0 6.37934e-11 0.0
0 5.54156e-11 0.0
0 5.26005e-11 0.0
SCALARS Porosity double
LOOKUP_TABLE default
0.16
0.16
0.16
0.16
0.16
0.16
0.16
0.16
0.16
0.16
0.16
0.16
0.16
0.16
0.16
0.16
0.16
0.16
0.16
0.16
0.16
0.16
0.16
0.16
0.16
0.16
0.16
0.16
0.16
0.16
0.16
0.16
SCALARS Cell_Number double
LOOKUP_TABLE default
0
1
2
3
4
5
6
7
8
9
10
11
12
13
14
15
16
17
18
19
20
21
22
23
24
25
26
27
28
29
30
31
VECTORS Permeability double
1 0.695059 0.0
1 0.390099 0.0
1 0.390059 0.0
1 0.390019 0.0
1 0.389978 0.0
1 0.389938 0.0
1 0.389897 0.0
1 0.389856 0.0
1 0.389814 0.0
1 0.389772 0.0
1 0.38973 0.0
1 0.389687 0.0
1 0.389643 0.0
1 0.389599 0.0
1 0.388688 0.0
1 0.195631 0.0
1 0.00345311 0.0
1 0.00343596 0.0
1 0.00342331 0.0
1 0.00341395 0.0
1 0.003407 0.0
1 0.00340184 0.0
1 0.003398 0.0
1 0.00339515 0.0
1 0.00339302 0.0
1 0.00339142 0.0
1 0.00339021 0.0
1 0.00338927 0.0
1 0.00338853 0.0
1 0.00338789 0.0
1 0.00321748 0.0
1 0.00152369 0.0
VECTORS indp double
0 0.5 0
0 1 0
0 1 0
0 1 0
0 1 0
0 1 0
0 1 0
0 1 0
0 1 0
0 1 0
0 1 0
0 1 0
0 1 0
0 1 0
0 1 0
0 0.5 0
0 0 0
0 0 0
0 0 0
0 0 0
0 0 0
0 0 0
0 0 0
0 0 0
0 0 0
0 0 0
0 0 0
0 0 0
0 0 0
0 0 0
0 0 0
0 0 0
