# vtk DataFile Version 3.0

ASCII
DATASET STRUCTURED_GRID
DIMENSIONS 2 33 1
POINTS 66 DOUBLE
0 0 0.0
0.012 0 0.0
0 0.000375 0.0
0.012 0.000375 0.0
0 0.00075 0.0
0.012 0.00075 0.0
0 0.001125 0.0
0.012 0.001125 0.0
0 0.0015 0.0
0.012 0.0015 0.0
0 0.001875 0.0
0.012 0.001875 0.0
0 0.00225 0.0
0.012 0.00225 0.0
0 0.002625 0.0
0.012 0.002625 0.0
0 0.003 0.0
0.012 0.003 0.0
0 0.003375 0.0
0.012 0.003375 0.0
0 0.00375 0.0
0.012 0.00375 0.0
0 0.004125 0.0
0.012 0.004125 0.0
0 0.0045 0.0
0.012 0.0045 0.0
0 0.004875 0.0
0.012 0.004875 0.0
0 0.00525 0.0
0.012 0.00525 0.0
0 0.005625 0.0
0.012 0.005625 0.0
0 0.006 0.0
0.012 0.006 0.0
0 0.006375 0.0
0.012 0.006375 0.0
0 0.00675 0.0
0.012 0.00675 0.0
0 0.007125 0.0
0.012 0.007125 0.0
0 0.0075 0.0
0.012 0.0075 0.0
0 0.007875 0.0
0.012 0.007875 0.0
0 0.00825 0.0
0.012 0.00825 0.0
0 0.008625 0.0
0.012 0.008625 0.0
0 0.009 0.0
0.012 0.009 0.0
0 0.009375 0.0
0.012 0.009375 0.0
0 0.00975 0.0
0.012 0.00975 0.0
0 0.010125 0.0
0.012 0.010125 0.0
0 0.0105 0.0
0.012 0.0105 0.0
0 0.010875 0.0
0.012 0.010875 0.0
0 0.01125 0.0
0.012 0.01125 0.0
0 0.011625 0.0
0.012 0.011625 0.0
0 0.012 0.0
0.012 0.012 0.0
CELL_DATA 32
SCALARS Fluid_Pressure double
LOOKUP_TABLE default
9.30793e+06
9.30434e+06
9.30074e+06
9.29713e+06
9.29352e+06
9.28989e+06
9.28626e+06
9.28261e+06
9.27895e+06
9.27527e+06
9.27157e+06
9.26784e+06
9.26409e+06
9.2603e+06
9.25648e+06
9.25262e+06
9.2487e+06
9.24472e+06
8.93029e+06
8.69901e+06
8.52576e+06
8.39492e+06
8.29584e+06
8.22078e+06
8.16393e+06
8.12083e+06
8.08801e+06
8.0628e+06
8.04309e+06
8.02718e+06
8.01368e+06
8.00004e+06
SCALARS Fluid_Pressure_Exact double
LOOKUP_TABLE default
1.28958e+07
1.27404e+07
1.2585e+07
1.24296e+07
1.22741e+07
1.21187e+07
1.19633e+07
1.18079e+07
1.16524e+07
1.1497e+07
1.13416e+07
1.11862e+07
1.10308e+07
1.08753e+07
1.07199e+07
1.05645e+07
1.04091e+07
1.02536e+07
1.00982e+07
9.94279e+06
9.78737e+06
9.63194e+06
9.47652e+06
9.3211e+06
9.16567e+06
9.01025e+06
8.85483e+06
8.6994e+06
8.54398e+06
8.38856e+06
8.23313e+06
8.07771e+06
VECTORS FluidFlux double
0 3.73335e-09 0.0
0 3.73989e-09 0.0
0 3.74688e-09 0.0
0 3.75463e-09 0.0
0 3.76346e-09 0.0
0 3.77369e-09 0.0
0 3.78566e-09 0.0
0 3.79973e-09 0.0
0 3.81627e-09 0.0
0 3.83568e-09 0.0
0 3.8584e-09 0.0
0 3.88488e-09 0.0
0 3.91562e-09 0.0
0 3.95116e-09 0.0
0 3.99209e-09 0.0
0 4.03905e-09 0.0
0 4.09271e-09 0.0
0 3.51347e-09 0.0
0 2.51543e-09 0.0
0 1.85523e-09 0.0
0 1.38927e-09 0.0
0 1.04738e-09 0.0
0 7.91504e-10 0.0
0 5.98549e-10 0.0
0 4.53005e-10 0.0
0 3.43747e-10 0.0
0 2.6252e-10 0.0
0 2.03139e-10 0.0
0 1.61011e-10 0.0
0 1.32827e-10 0.0
0 1.16345e-10 0.0
0 1.10793e-10 0.0
SCALARS Porosity double
LOOKUP_TABLE default
0.16
0.16
0.16
0.16
0.16
0.16
0.16
0.16
0.16
0.16
0.16
0.16
0.16
0.16
0.16
0.16
0.16
0.16
0.16
0.16
0.16
0.16
0.16
0.16
0.16
0.16
0.16
0.16
0.16
0.16
0.16
0.16
SCALARS Cell_Number double
LOOKUP_TABLE default
0
1
2
3
4
5
6
7
8
9
10
11
12
13
14
15
16
17
18
19
20
21
22
23
24
25
26
27
28
29
30
31
VECTORS Permeability double
1 0.695172 0.0
1 0.390324 0.0
1 0.390284 0.0
1 0.390245 0.0
1 0.390205 0.0
1 0.390165 0.0
1 0.390125 0.0
1 0.390085 0.0
1 0.390045 0.0
1 0.390005 0.0
1 0.389964 0.0
1 0.389923 0.0
1 0.389882 0.0
1 0.38984 0.0
1 0.389798 0.0
1 0.389755 0.0
1 0.388869 0.0
1 0.195735 0.0
1 0.00345565 0.0
1 0.00343854 0.0
1 0.0034257 0.0
1 0.00341603 0.0
1 0.00340871 0.0
1 0.00340318 0.0
1 0.003399 0.0
1 0.00339581 0.0
1 0.00339336 0.0
1 0.00339145 0.0
1 0.00338991 0.0
1 0.00338857 0.0
1 0.00321765 0.0
1 0.00152369 0.0
VECTORS indp double
0 0.5 0
0 1 0
0 1 0
0 1 0
0 1 0
0 1 0
0 1 0
0 1 0
0 1 0
0 1 0
0 1 0
0 1 0
0 1 0
0 1 0
0 1 0
0 1 0
0 1 0
0 0.5 0
0 0 0
0 0 0
0 0 0
0 0 0
0 0 0
0 0 0
0 0 0
0 0 0
0 0 0
0 0 0
0 0 0
0 0 0
0 0 0
0 0 0
