# vtk DataFile Version 3.0

ASCII
DATASET STRUCTURED_GRID
DIMENSIONS 2 33 1
POINTS 66 DOUBLE
0 0 0.0
0.012 0 0.0
0 0.000375 0.0
0.012 0.000375 0.0
0 0.00075 0.0
0.012 0.00075 0.0
0 0.001125 0.0
0.012 0.001125 0.0
0 0.0015 0.0
0.012 0.0015 0.0
0 0.001875 0.0
0.012 0.001875 0.0
0 0.00225 0.0
0.012 0.00225 0.0
0 0.002625 0.0
0.012 0.002625 0.0
0 0.003 0.0
0.012 0.003 0.0
0 0.003375 0.0
0.012 0.003375 0.0
0 0.00375 0.0
0.012 0.00375 0.0
0 0.004125 0.0
0.012 0.004125 0.0
0 0.0045 0.0
0.012 0.0045 0.0
0 0.004875 0.0
0.012 0.004875 0.0
0 0.00525 0.0
0.012 0.00525 0.0
0 0.005625 0.0
0.012 0.005625 0.0
0 0.006 0.0
0.012 0.006 0.0
0 0.006375 0.0
0.012 0.006375 0.0
0 0.00675 0.0
0.012 0.00675 0.0
0 0.007125 0.0
0.012 0.007125 0.0
0 0.0075 0.0
0.012 0.0075 0.0
0 0.007875 0.0
0.012 0.007875 0.0
0 0.00825 0.0
0.012 0.00825 0.0
0 0.008625 0.0
0.012 0.008625 0.0
0 0.009 0.0
0.012 0.009 0.0
0 0.009375 0.0
0.012 0.009375 0.0
0 0.00975 0.0
0.012 0.00975 0.0
0 0.010125 0.0
0.012 0.010125 0.0
0 0.0105 0.0
0.012 0.0105 0.0
0 0.010875 0.0
0.012 0.010875 0.0
0 0.01125 0.0
0.012 0.01125 0.0
0 0.011625 0.0
0.012 0.011625 0.0
0 0.012 0.0
0.012 0.012 0.0
CELL_DATA 32
SCALARS Fluid_Pressure double
LOOKUP_TABLE default
9.32591e+06
9.32235e+06
9.31882e+06
9.31532e+06
9.31185e+06
9.30841e+06
9.305e+06
9.30162e+06
9.29828e+06
9.29496e+06
9.29169e+06
9.28845e+06
9.28525e+06
9.28209e+06
9.27898e+06
9.27592e+06
9.27291e+06
9.26995e+06
9.26705e+06
9.26422e+06
9.26146e+06
9.25877e+06
9.25616e+06
9.25363e+06
8.98153e+06
8.74792e+06
8.55702e+06
8.40368e+06
8.28003e+06
8.178e+06
8.09002e+06
8.00028e+06
SCALARS Fluid_Pressure_Exact double
LOOKUP_TABLE default
1.28958e+07
1.27404e+07
1.2585e+07
1.24296e+07
1.22741e+07
1.21187e+07
1.19633e+07
1.18079e+07
1.16524e+07
1.1497e+07
1.13416e+07
1.11862e+07
1.10308e+07
1.08753e+07
1.07199e+07
1.05645e+07
1.04091e+07
1.02536e+07
1.00982e+07
9.94279e+06
9.78737e+06
9.63194e+06
9.47652e+06
9.3211e+06
9.16567e+06
9.01025e+06
8.85483e+06
8.6994e+06
8.54398e+06
8.38856e+06
8.23313e+06
8.07771e+06
VECTORS FluidFlux double
0 3.71545e-09 0.0
0 3.68595e-09 0.0
0 3.65619e-09 0.0
0 3.62599e-09 0.0
0 3.59519e-09 0.0
0 3.56359e-09 0.0
0 3.53101e-09 0.0
0 3.49725e-09 0.0
0 3.46211e-09 0.0
0 3.42535e-09 0.0
0 3.38675e-09 0.0
0 3.34605e-09 0.0
0 3.30299e-09 0.0
0 3.25726e-09 0.0
0 3.20856e-09 0.0
0 3.15654e-09 0.0
0 3.10083e-09 0.0
0 3.04102e-09 0.0
0 2.97665e-09 0.0
0 2.90726e-09 0.0
0 2.83229e-09 0.0
0 2.75115e-09 0.0
0 2.66322e-09 0.0
0 2.56773e-09 0.0
0 2.33349e-09 0.0
0 1.94835e-09 0.0
0 1.57306e-09 0.0
0 1.2612e-09 0.0
0 1.02457e-09 0.0
0 8.60364e-10 0.0
0 7.62457e-10 0.0
0 7.29205e-10 0.0
SCALARS Porosity double
LOOKUP_TABLE default
0.16
0.16
0.16
0.16
0.16
0.16
0.16
0.16
0.16
0.16
0.16
0.16
0.16
0.16
0.16
0.16
0.16
0.16
0.16
0.16
0.16
0.16
0.16
0.16
0.16
0.16
0.16
0.16
0.16
0.16
0.16
0.16
SCALARS Cell_Number double
LOOKUP_TABLE default
0
1
2
3
4
5
6
7
8
9
10
11
12
13
14
15
16
17
18
19
20
21
22
23
24
25
26
27
28
29
30
31
VECTORS Permeability double
1 0.69527 0.0
1 0.390521 0.0
1 0.390483 0.0
1 0.390445 0.0
1 0.390407 0.0
1 0.39037 0.0
1 0.390333 0.0
1 0.390297 0.0
1 0.390261 0.0
1 0.390225 0.0
1 0.390189 0.0
1 0.390154 0.0
1 0.39012 0.0
1 0.390086 0.0
1 0.390053 0.0
1 0.39002 0.0
1 0.389987 0.0
1 0.389956 0.0
1 0.389925 0.0
1 0.389895 0.0
1 0.389865 0.0
1 0.389837 0.0
1 0.389076 0.0
1 0.1959 0.0
1 0.00346002 0.0
1 0.00344144 0.0
1 0.0034265 0.0
1 0.00341446 0.0
1 0.00340454 0.0
1 0.00339578 0.0
1 0.00321948 0.0
1 0.0015237 0.0
VECTORS indp double
0 0.5 0
0 1 0
0 1 0
0 1 0
0 1 0
0 1 0
0 1 0
0 1 0
0 1 0
0 1 0
0 1 0
0 1 0
0 1 0
0 1 0
0 1 0
0 1 0
0 1 0
0 1 0
0 1 0
0 1 0
0 1 0
0 1 0
0 1 0
0 0.5 0
0 0 0
0 0 0
0 0 0
0 0 0
0 0 0
0 0 0
0 0 0
0 0 0
