# vtk DataFile Version 3.0

ASCII
DATASET STRUCTURED_GRID
DIMENSIONS 2 33 1
POINTS 66 DOUBLE
0 0 0.0
0.012 0 0.0
0 0.000375 0.0
0.012 0.000375 0.0
0 0.00075 0.0
0.012 0.00075 0.0
0 0.001125 0.0
0.012 0.001125 0.0
0 0.0015 0.0
0.012 0.0015 0.0
0 0.001875 0.0
0.012 0.001875 0.0
0 0.00225 0.0
0.012 0.00225 0.0
0 0.002625 0.0
0.012 0.002625 0.0
0 0.003 0.0
0.012 0.003 0.0
0 0.003375 0.0
0.012 0.003375 0.0
0 0.00375 0.0
0.012 0.00375 0.0
0 0.004125 0.0
0.012 0.004125 0.0
0 0.0045 0.0
0.012 0.0045 0.0
0 0.004875 0.0
0.012 0.004875 0.0
0 0.00525 0.0
0.012 0.00525 0.0
0 0.005625 0.0
0.012 0.005625 0.0
0 0.006 0.0
0.012 0.006 0.0
0 0.006375 0.0
0.012 0.006375 0.0
0 0.00675 0.0
0.012 0.00675 0.0
0 0.007125 0.0
0.012 0.007125 0.0
0 0.0075 0.0
0.012 0.0075 0.0
0 0.007875 0.0
0.012 0.007875 0.0
0 0.00825 0.0
0.012 0.00825 0.0
0 0.008625 0.0
0.012 0.008625 0.0
0 0.009 0.0
0.012 0.009 0.0
0 0.009375 0.0
0.012 0.009375 0.0
0 0.00975 0.0
0.012 0.00975 0.0
0 0.010125 0.0
0.012 0.010125 0.0
0 0.0105 0.0
0.012 0.0105 0.0
0 0.010875 0.0
0.012 0.010875 0.0
0 0.01125 0.0
0.012 0.01125 0.0
0 0.011625 0.0
0.012 0.011625 0.0
0 0.012 0.0
0.012 0.012 0.0
CELL_DATA 32
SCALARS Fluid_Pressure double
LOOKUP_TABLE default
9.31638e+06
9.31277e+06
9.30913e+06
9.30546e+06
9.30176e+06
9.29803e+06
9.29427e+06
9.29048e+06
9.28665e+06
9.28279e+06
9.2789e+06
9.27498e+06
9.27101e+06
9.26701e+06
9.26297e+06
9.25888e+06
9.25475e+06
9.25058e+06
9.24636e+06
9.24209e+06
9.23777e+06
9.23339e+06
9.22894e+06
8.88898e+06
8.64869e+06
8.47448e+06
8.34517e+06
8.24688e+06
8.17004e+06
8.10768e+06
8.05437e+06
8.00017e+06
SCALARS Fluid_Pressure_Exact double
LOOKUP_TABLE default
1.28958e+07
1.27404e+07
1.2585e+07
1.24296e+07
1.22741e+07
1.21187e+07
1.19633e+07
1.18079e+07
1.16524e+07
1.1497e+07
1.13416e+07
1.11862e+07
1.10308e+07
1.08753e+07
1.07199e+07
1.05645e+07
1.04091e+07
1.02536e+07
1.00982e+07
9.94279e+06
9.78737e+06
9.63194e+06
9.47652e+06
9.3211e+06
9.16567e+06
9.01025e+06
8.85483e+06
8.6994e+06
8.54398e+06
8.38856e+06
8.23313e+06
8.07771e+06
VECTORS FluidFlux double
0 3.74479e-09 0.0
0 3.77412e-09 0.0
0 3.80365e-09 0.0
0 3.83353e-09 0.0
0 3.86388e-09 0.0
0 3.89485e-09 0.0
0 3.92656e-09 0.0
0 3.95914e-09 0.0
0 3.99273e-09 0.0
0 4.02744e-09 0.0
0 4.0634e-09 0.0
0 4.10072e-09 0.0
0 4.13953e-09 0.0
0 4.17991e-09 0.0
0 4.22198e-09 0.0
0 4.26582e-09 0.0
0 4.3115e-09 0.0
0 4.35911e-09 0.0
0 4.40868e-09 0.0
0 4.46025e-09 0.0
0 4.51385e-09 0.0
0 4.56941e-09 0.0
0 3.86765e-09 0.0
0 2.67125e-09 0.0
0 1.89831e-09 0.0
0 1.38471e-09 0.0
0 1.03535e-09 0.0
0 7.9487e-10 0.0
0 6.30652e-10 0.0
0 5.23229e-10 0.0
0 4.61158e-10 0.0
0 4.40356e-10 0.0
SCALARS Porosity double
LOOKUP_TABLE default
0.16
0.16
0.16
0.16
0.16
0.16
0.16
0.16
0.16
0.16
0.16
0.16
0.16
0.16
0.16
0.16
0.16
0.16
0.16
0.16
0.16
0.16
0.16
0.16
0.16
0.16
0.16
0.16
0.16
0.16
0.16
0.16
SCALARS Cell_Number double
LOOKUP_TABLE default
0
1
2
3
4
5
6
7
8
9
10
11
12
13
14
15
16
17
18
19
20
21
22
23
24
25
26
27
28
29
30
31
VECTORS Permeability double
1 0.695218 0.0
1 0.390415 0.0
1 0.390375 0.0
1 0.390335 0.0
1 0.390294 0.0
1 0.390253 0.0
1 0.390211 0.0
1 0.39017 0.0
1 0.390127 0.0
1 0.390085 0.0
1 0.390042 0.0
1 0.389999 0.0
1 0.389955 0.0
1 0.389911 0.0
1 0.389866 0.0
1 0.389821 0.0
1 0.389776 0.0
1 0.38973 0.0
1 0.389683 0.0
1 0.389636 0.0
1 0.389588 0.0
1 0.388629 0.0
1 0.195578 0.0
1 0.00345098 0.0
1 0.00343367 0.0
1 0.00342092 0.0
1 0.00341128 0.0
1 0.00340378 0.0
1 0.00339772 0.0
1 0.00339241 0.0
1 0.00321863 0.0
1 0.0015237 0.0
VECTORS indp double
0 0.5 0
0 1 0
0 1 0
0 1 0
0 1 0
0 1 0
0 1 0
0 1 0
0 1 0
0 1 0
0 1 0
0 1 0
0 1 0
0 1 0
0 1 0
0 1 0
0 1 0
0 1 0
0 1 0
0 1 0
0 1 0
0 1 0
0 0.5 0
0 0 0
0 0 0
0 0 0
0 0 0
0 0 0
0 0 0
0 0 0
0 0 0
0 0 0
