# vtk DataFile Version 3.0

ASCII
DATASET STRUCTURED_GRID
DIMENSIONS 2 33 1
POINTS 66 DOUBLE
0 0 0.0
0.012 0 0.0
0 0.000375 0.0
0.012 0.000375 0.0
0 0.00075 0.0
0.012 0.00075 0.0
0 0.001125 0.0
0.012 0.001125 0.0
0 0.0015 0.0
0.012 0.0015 0.0
0 0.001875 0.0
0.012 0.001875 0.0
0 0.00225 0.0
0.012 0.00225 0.0
0 0.002625 0.0
0.012 0.002625 0.0
0 0.003 0.0
0.012 0.003 0.0
0 0.003375 0.0
0.012 0.003375 0.0
0 0.00375 0.0
0.012 0.00375 0.0
0 0.004125 0.0
0.012 0.004125 0.0
0 0.0045 0.0
0.012 0.0045 0.0
0 0.004875 0.0
0.012 0.004875 0.0
0 0.00525 0.0
0.012 0.00525 0.0
0 0.005625 0.0
0.012 0.005625 0.0
0 0.006 0.0
0.012 0.006 0.0
0 0.006375 0.0
0.012 0.006375 0.0
0 0.00675 0.0
0.012 0.00675 0.0
0 0.007125 0.0
0.012 0.007125 0.0
0 0.0075 0.0
0.012 0.0075 0.0
0 0.007875 0.0
0.012 0.007875 0.0
0 0.00825 0.0
0.012 0.00825 0.0
0 0.008625 0.0
0.012 0.008625 0.0
0 0.009 0.0
0.012 0.009 0.0
0 0.009375 0.0
0.012 0.009375 0.0
0 0.00975 0.0
0.012 0.00975 0.0
0 0.010125 0.0
0.012 0.010125 0.0
0 0.0105 0.0
0.012 0.0105 0.0
0 0.010875 0.0
0.012 0.010875 0.0
0 0.01125 0.0
0.012 0.01125 0.0
0 0.011625 0.0
0.012 0.011625 0.0
0 0.012 0.0
0.012 0.012 0.0
CELL_DATA 32
SCALARS Fluid_Pressure double
LOOKUP_TABLE default
9.33008e+06
9.3265e+06
9.3229e+06
9.31931e+06
9.3157e+06
9.3121e+06
9.30848e+06
9.30486e+06
9.30123e+06
9.29759e+06
9.29394e+06
9.29028e+06
9.2866e+06
9.2829e+06
9.27919e+06
9.27545e+06
9.27169e+06
9.2679e+06
9.26408e+06
9.26022e+06
9.25632e+06
9.25238e+06
9.24839e+06
9.24433e+06
9.24022e+06
9.23602e+06
8.90062e+06
8.64755e+06
8.44863e+06
8.28551e+06
8.14461e+06
8.00044e+06
SCALARS Fluid_Pressure_Exact double
LOOKUP_TABLE default
1.28958e+07
1.27404e+07
1.2585e+07
1.24296e+07
1.22741e+07
1.21187e+07
1.19633e+07
1.18079e+07
1.16524e+07
1.1497e+07
1.13416e+07
1.11862e+07
1.10308e+07
1.08753e+07
1.07199e+07
1.05645e+07
1.04091e+07
1.02536e+07
1.00982e+07
9.94279e+06
9.78737e+06
9.63194e+06
9.47652e+06
9.3211e+06
9.16567e+06
9.01025e+06
8.85483e+06
8.6994e+06
8.54398e+06
8.38856e+06
8.23313e+06
8.07771e+06
VECTORS FluidFlux double
0 3.73221e-09 0.0
0 3.73638e-09 0.0
0 3.74078e-09 0.0
0 3.74555e-09 0.0
0 3.75084e-09 0.0
0 3.75683e-09 0.0
0 3.76367e-09 0.0
0 3.77154e-09 0.0
0 3.78062e-09 0.0
0 3.7911e-09 0.0
0 3.8032e-09 0.0
0 3.81713e-09 0.0
0 3.83313e-09 0.0
0 3.85148e-09 0.0
0 3.87243e-09 0.0
0 3.8963e-09 0.0
0 3.92343e-09 0.0
0 3.95417e-09 0.0
0 3.98892e-09 0.0
0 4.02812e-09 0.0
0 4.07224e-09 0.0
0 4.1218e-09 0.0
0 4.17737e-09 0.0
0 4.23959e-09 0.0
0 4.30912e-09 0.0
0 3.72084e-09 0.0
0 2.70859e-09 0.0
0 2.06832e-09 0.0
0 1.64879e-09 0.0
0 1.37877e-09 0.0
0 1.22342e-09 0.0
0 1.17139e-09 0.0
SCALARS Porosity double
LOOKUP_TABLE default
0.16
0.16
0.16
0.16
0.16
0.16
0.16
0.16
0.16
0.16
0.16
0.16
0.16
0.16
0.16
0.16
0.16
0.16
0.16
0.16
0.16
0.16
0.16
0.16
0.16
0.16
0.16
0.16
0.16
0.16
0.16
0.16
SCALARS Cell_Number double
LOOKUP_TABLE default
0
1
2
3
4
5
6
7
8
9
10
11
12
13
14
15
16
17
18
19
20
21
22
23
24
25
26
27
28
29
30
31
VECTORS Permeability double
1 0.695293 0.0
1 0.390566 0.0
1 0.390527 0.0
1 0.390487 0.0
1 0.390448 0.0
1 0.390408 0.0
1 0.390369 0.0
1 0.390329 0.0
1 0.390289 0.0
1 0.390249 0.0
1 0.390209 0.0
1 0.390169 0.0
1 0.390129 0.0
1 0.390088 0.0
1 0.390047 0.0
1 0.390006 0.0
1 0.389965 0.0
1 0.389923 0.0
1 0.389881 0.0
1 0.389838 0.0
1 0.389795 0.0
1 0.389752 0.0
1 0.389707 0.0
1 0.389662 0.0
1 0.388718 0.0
1 0.195629 0.0
1 0.00345059 0.0
1 0.00343097 0.0
1 0.003415 0.0
1 0.00340095 0.0
1 0.00322078 0.0
1 0.0015237 0.0
VECTORS indp double
0 0.5 0
0 1 0
0 1 0
0 1 0
0 1 0
0 1 0
0 1 0
0 1 0
0 1 0
0 1 0
0 1 0
0 1 0
0 1 0
0 1 0
0 1 0
0 1 0
0 1 0
0 1 0
0 1 0
0 1 0
0 1 0
0 1 0
0 1 0
0 1 0
0 1 0
0 0.5 0
0 0 0
0 0 0
0 0 0
0 0 0
0 0 0
0 0 0
