# vtk DataFile Version 3.0

ASCII
DATASET STRUCTURED_GRID
DIMENSIONS 2 33 1
POINTS 66 DOUBLE
0 0 0.0
0.012 0 0.0
0 0.000375 0.0
0.012 0.000375 0.0
0 0.00075 0.0
0.012 0.00075 0.0
0 0.001125 0.0
0.012 0.001125 0.0
0 0.0015 0.0
0.012 0.0015 0.0
0 0.001875 0.0
0.012 0.001875 0.0
0 0.00225 0.0
0.012 0.00225 0.0
0 0.002625 0.0
0.012 0.002625 0.0
0 0.003 0.0
0.012 0.003 0.0
0 0.003375 0.0
0.012 0.003375 0.0
0 0.00375 0.0
0.012 0.00375 0.0
0 0.004125 0.0
0.012 0.004125 0.0
0 0.0045 0.0
0.012 0.0045 0.0
0 0.004875 0.0
0.012 0.004875 0.0
0 0.00525 0.0
0.012 0.00525 0.0
0 0.005625 0.0
0.012 0.005625 0.0
0 0.006 0.0
0.012 0.006 0.0
0 0.006375 0.0
0.012 0.006375 0.0
0 0.00675 0.0
0.012 0.00675 0.0
0 0.007125 0.0
0.012 0.007125 0.0
0 0.0075 0.0
0.012 0.0075 0.0
0 0.007875 0.0
0.012 0.007875 0.0
0 0.00825 0.0
0.012 0.00825 0.0
0 0.008625 0.0
0.012 0.008625 0.0
0 0.009 0.0
0.012 0.009 0.0
0 0.009375 0.0
0.012 0.009375 0.0
0 0.00975 0.0
0.012 0.00975 0.0
0 0.010125 0.0
0.012 0.010125 0.0
0 0.0105 0.0
0.012 0.0105 0.0
0 0.010875 0.0
0.012 0.010875 0.0
0 0.01125 0.0
0.012 0.01125 0.0
0 0.011625 0.0
0.012 0.011625 0.0
0 0.012 0.0
0.012 0.012 0.0
CELL_DATA 32
SCALARS Fluid_Pressure double
LOOKUP_TABLE default
9.3138e+06
9.31021e+06
9.30662e+06
9.30302e+06
9.29942e+06
9.29581e+06
9.2922e+06
9.28858e+06
9.28495e+06
9.28131e+06
9.27765e+06
9.27398e+06
9.27029e+06
9.26657e+06
9.26284e+06
9.25907e+06
9.25527e+06
9.25142e+06
9.24754e+06
9.2436e+06
9.23959e+06
8.92316e+06
8.69062e+06
8.51658e+06
8.38511e+06
8.28519e+06
8.20876e+06
8.14967e+06
8.10311e+06
8.06525e+06
8.03292e+06
8.0001e+06
SCALARS Fluid_Pressure_Exact double
LOOKUP_TABLE default
1.28958e+07
1.27404e+07
1.2585e+07
1.24296e+07
1.22741e+07
1.21187e+07
1.19633e+07
1.18079e+07
1.16524e+07
1.1497e+07
1.13416e+07
1.11862e+07
1.10308e+07
1.08753e+07
1.07199e+07
1.05645e+07
1.04091e+07
1.02536e+07
1.00982e+07
9.94279e+06
9.78737e+06
9.63194e+06
9.47652e+06
9.3211e+06
9.16567e+06
9.01025e+06
8.85483e+06
8.6994e+06
8.54398e+06
8.38856e+06
8.23313e+06
8.07771e+06
VECTORS FluidFlux double
0 3.73175e-09 0.0
0 3.73504e-09 0.0
0 3.73866e-09 0.0
0 3.74284e-09 0.0
0 3.74779e-09 0.0
0 3.75376e-09 0.0
0 3.76098e-09 0.0
0 3.76973e-09 0.0
0 3.78028e-09 0.0
0 3.79292e-09 0.0
0 3.80795e-09 0.0
0 3.82573e-09 0.0
0 3.84661e-09 0.0
0 3.871e-09 0.0
0 3.89932e-09 0.0
0 3.93204e-09 0.0
0 3.96969e-09 0.0
0 4.01281e-09 0.0
0 4.06204e-09 0.0
0 4.11802e-09 0.0
0 3.53564e-09 0.0
0 2.52989e-09 0.0
0 1.86413e-09 0.0
0 1.39537e-09 0.0
0 1.05376e-09 0.0
0 8.01289e-10 0.0
0 6.14733e-10 0.0
0 4.78574e-10 0.0
0 3.81957e-10 0.0
0 3.17268e-10 0.0
0 2.79406e-10 0.0
0 2.66647e-10 0.0
SCALARS Porosity double
LOOKUP_TABLE default
0.16
0.16
0.16
0.16
0.16
0.16
0.16
0.16
0.16
0.16
0.16
0.16
0.16
0.16
0.16
0.16
0.16
0.16
0.16
0.16
0.16
0.16
0.16
0.16
0.16
0.16
0.16
0.16
0.16
0.16
0.16
0.16
SCALARS Cell_Number double
LOOKUP_TABLE default
0
1
2
3
4
5
6
7
8
9
10
11
12
13
14
15
16
17
18
19
20
21
22
23
24
25
26
27
28
29
30
31
VECTORS Permeability double
1 0.695204 0.0
1 0.390388 0.0
1 0.390348 0.0
1 0.390309 0.0
1 0.39027 0.0
1 0.39023 0.0
1 0.390191 0.0
1 0.390151 0.0
1 0.390111 0.0
1 0.390071 0.0
1 0.390031 0.0
1 0.389991 0.0
1 0.38995 0.0
1 0.389909 0.0
1 0.389868 0.0
1 0.389827 0.0
1 0.389785 0.0
1 0.389742 0.0
1 0.389699 0.0
1 0.388807 0.0
1 0.195701 0.0
1 0.00345485 0.0
1 0.00343766 0.0
1 0.00342476 0.0
1 0.00341499 0.0
1 0.00340755 0.0
1 0.0034018 0.0
1 0.00339727 0.0
1 0.0033936 0.0
1 0.00339038 0.0
1 0.00321811 0.0
1 0.00152369 0.0
VECTORS indp double
0 0.5 0
0 1 0
0 1 0
0 1 0
0 1 0
0 1 0
0 1 0
0 1 0
0 1 0
0 1 0
0 1 0
0 1 0
0 1 0
0 1 0
0 1 0
0 1 0
0 1 0
0 1 0
0 1 0
0 1 0
0 0.5 0
0 0 0
0 0 0
0 0 0
0 0 0
0 0 0
0 0 0
0 0 0
0 0 0
0 0 0
0 0 0
0 0 0
