# vtk DataFile Version 3.0

ASCII
DATASET STRUCTURED_GRID
DIMENSIONS 2 33 1
POINTS 66 DOUBLE
0 0 0.0
0.012 0 0.0
0 0.000375 0.0
0.012 0.000375 0.0
0 0.00075 0.0
0.012 0.00075 0.0
0 0.001125 0.0
0.012 0.001125 0.0
0 0.0015 0.0
0.012 0.0015 0.0
0 0.001875 0.0
0.012 0.001875 0.0
0 0.00225 0.0
0.012 0.00225 0.0
0 0.002625 0.0
0.012 0.002625 0.0
0 0.003 0.0
0.012 0.003 0.0
0 0.003375 0.0
0.012 0.003375 0.0
0 0.00375 0.0
0.012 0.00375 0.0
0 0.004125 0.0
0.012 0.004125 0.0
0 0.0045 0.0
0.012 0.0045 0.0
0 0.004875 0.0
0.012 0.004875 0.0
0 0.00525 0.0
0.012 0.00525 0.0
0 0.005625 0.0
0.012 0.005625 0.0
0 0.006 0.0
0.012 0.006 0.0
0 0.006375 0.0
0.012 0.006375 0.0
0 0.00675 0.0
0.012 0.00675 0.0
0 0.007125 0.0
0.012 0.007125 0.0
0 0.0075 0.0
0.012 0.0075 0.0
0 0.007875 0.0
0.012 0.007875 0.0
0 0.00825 0.0
0.012 0.00825 0.0
0 0.008625 0.0
0.012 0.008625 0.0
0 0.009 0.0
0.012 0.009 0.0
0 0.009375 0.0
0.012 0.009375 0.0
0 0.00975 0.0
0.012 0.00975 0.0
0 0.010125 0.0
0.012 0.010125 0.0
0 0.0105 0.0
0.012 0.0105 0.0
0 0.010875 0.0
0.012 0.010875 0.0
0 0.01125 0.0
0.012 0.01125 0.0
0 0.011625 0.0
0.012 0.011625 0.0
0 0.012 0.0
0.012 0.012 0.0
CELL_DATA 32
SCALARS Fluid_Pressure double
LOOKUP_TABLE default
9.02841e+06
8.71343e+06
8.47964e+06
8.31372e+06
8.20035e+06
8.12533e+06
8.07699e+06
8.04656e+06
8.02777e+06
8.01636e+06
8.00953e+06
8.0055e+06
8.00314e+06
8.00178e+06
8.001e+06
8.00056e+06
8.00031e+06
8.00017e+06
8.0001e+06
8.00005e+06
8.00003e+06
8.00002e+06
8.00001e+06
8e+06
8e+06
8e+06
8e+06
8e+06
8e+06
8e+06
8e+06
8e+06
SCALARS Fluid_Pressure_Exact double
LOOKUP_TABLE default
1.28958e+07
1.27404e+07
1.2585e+07
1.24296e+07
1.22741e+07
1.21187e+07
1.19633e+07
1.18079e+07
1.16524e+07
1.1497e+07
1.13416e+07
1.11862e+07
1.10308e+07
1.08753e+07
1.07199e+07
1.05645e+07
1.04091e+07
1.02536e+07
1.00982e+07
9.94279e+06
9.78737e+06
9.63194e+06
9.47652e+06
9.3211e+06
9.16567e+06
9.01025e+06
8.85483e+06
8.6994e+06
8.54398e+06
8.38856e+06
8.23313e+06
8.07771e+06
VECTORS FluidFlux double
0 3.31159e-09 0.0
0 2.51416e-09 0.0
0 1.82241e-09 0.0
0 1.2691e-09 0.0
0 8.54143e-10 0.0
0 5.58461e-10 0.0
0 3.56245e-10 0.0
0 2.22499e-10 0.0
0 1.36451e-10 0.0
0 8.23605e-11 0.0
0 4.90214e-11 0.0
0 2.88176e-11 0.0
0 1.67526e-11 0.0
0 9.63997e-12 0.0
0 5.49427e-12 0.0
0 3.10219e-12 0.0
0 1.7344e-12 0.0
0 9.58631e-13 0.0
0 5.21867e-13 0.0
0 2.77596e-13 0.0
0 1.41798e-13 0.0
0 6.66957e-14 0.0
0 2.53286e-14 0.0
0 2.58143e-15 0.0
0 -9.97359e-15 0.0
0 -1.70144e-14 0.0
0 -2.11249e-14 0.0
0 -2.37139e-14 0.0
0 -2.55136e-14 0.0
0 -2.68405e-14 0.0
0 -2.77401e-14 0.0
0 -2.80764e-14 0.0
SCALARS Porosity double
LOOKUP_TABLE default
0.16
0.16
0.16
0.16
0.16
0.16
0.16
0.16
0.16
0.16
0.16
0.16
0.16
0.16
0.16
0.16
0.16
0.16
0.16
0.16
0.16
0.16
0.16
0.16
0.16
0.16
0.16
0.16
0.16
0.16
0.16
0.16
SCALARS Cell_Number double
LOOKUP_TABLE default
0
1
2
3
4
5
6
7
8
9
10
11
12
13
14
15
16
17
18
19
20
21
22
23
24
25
26
27
28
29
30
31
VECTORS Permeability double
1 0.501722 0.0
1 0.00343473 0.0
1 0.00341843 0.0
1 0.00340725 0.0
1 0.00339982 0.0
1 0.00339501 0.0
1 0.00339197 0.0
1 0.00339008 0.0
1 0.00338893 0.0
1 0.00338824 0.0
1 0.00338783 0.0
1 0.00338759 0.0
1 0.00338745 0.0
1 0.00338737 0.0
1 0.00338733 0.0
1 0.0033873 0.0
1 0.00338729 0.0
1 0.00338728 0.0
1 0.00338728 0.0
1 0.00338727 0.0
1 0.00338727 0.0
1 0.00338727 0.0
1 0.00338727 0.0
1 0.00338727 0.0
1 0.00338727 0.0
1 0.00338727 0.0
1 0.00338727 0.0
1 0.00338727 0.0
1 0.00338727 0.0
1 0.00338727 0.0
1 0.00321733 0.0
1 0.00152369 0.0
VECTORS indp double
0 0 0
0 0 0
0 0 0
0 0 0
0 0 0
0 0 0
0 0 0
0 0 0
0 0 0
0 0 0
0 0 0
0 0 0
0 0 0
0 0 0
0 0 0
0 0 0
0 0 0
0 0 0
0 0 0
0 0 0
0 0 0
0 0 0
0 0 0
0 0 0
0 0 0
0 0 0
0 0 0
0 0 0
0 0 0
0 0 0
0 0 0
0 0 0
