# vtk DataFile Version 3.0

ASCII
DATASET STRUCTURED_GRID
DIMENSIONS 2 33 1
POINTS 66 DOUBLE
0 0 0.0
0.012 0 0.0
0 0.000375 0.0
0.012 0.000375 0.0
0 0.00075 0.0
0.012 0.00075 0.0
0 0.001125 0.0
0.012 0.001125 0.0
0 0.0015 0.0
0.012 0.0015 0.0
0 0.001875 0.0
0.012 0.001875 0.0
0 0.00225 0.0
0.012 0.00225 0.0
0 0.002625 0.0
0.012 0.002625 0.0
0 0.003 0.0
0.012 0.003 0.0
0 0.003375 0.0
0.012 0.003375 0.0
0 0.00375 0.0
0.012 0.00375 0.0
0 0.004125 0.0
0.012 0.004125 0.0
0 0.0045 0.0
0.012 0.0045 0.0
0 0.004875 0.0
0.012 0.004875 0.0
0 0.00525 0.0
0.012 0.00525 0.0
0 0.005625 0.0
0.012 0.005625 0.0
0 0.006 0.0
0.012 0.006 0.0
0 0.006375 0.0
0.012 0.006375 0.0
0 0.00675 0.0
0.012 0.00675 0.0
0 0.007125 0.0
0.012 0.007125 0.0
0 0.0075 0.0
0.012 0.0075 0.0
0 0.007875 0.0
0.012 0.007875 0.0
0 0.00825 0.0
0.012 0.00825 0.0
0 0.008625 0.0
0.012 0.008625 0.0
0 0.009 0.0
0.012 0.009 0.0
0 0.009375 0.0
0.012 0.009375 0.0
0 0.00975 0.0
0.012 0.00975 0.0
0 0.010125 0.0
0.012 0.010125 0.0
0 0.0105 0.0
0.012 0.0105 0.0
0 0.010875 0.0
0.012 0.010875 0.0
0 0.01125 0.0
0.012 0.01125 0.0
0 0.011625 0.0
0.012 0.011625 0.0
0 0.012 0.0
0.012 0.012 0.0
CELL_DATA 32
SCALARS Fluid_Pressure double
LOOKUP_TABLE default
9.32243e+06
9.31888e+06
9.31538e+06
9.31192e+06
9.30849e+06
9.30512e+06
9.30178e+06
9.29849e+06
9.29524e+06
9.29205e+06
9.2889e+06
9.28581e+06
9.28277e+06
9.27979e+06
9.27687e+06
9.27402e+06
9.27124e+06
9.26853e+06
9.2659e+06
9.26336e+06
9.2609e+06
8.99756e+06
8.77223e+06
8.58941e+06
8.44494e+06
8.33221e+06
8.24453e+06
8.17599e+06
8.12158e+06
8.07708e+06
8.03893e+06
8.00012e+06
SCALARS Fluid_Pressure_Exact double
LOOKUP_TABLE default
1.28958e+07
1.27404e+07
1.2585e+07
1.24296e+07
1.22741e+07
1.21187e+07
1.19633e+07
1.18079e+07
1.16524e+07
1.1497e+07
1.13416e+07
1.11862e+07
1.10308e+07
1.08753e+07
1.07199e+07
1.05645e+07
1.04091e+07
1.02536e+07
1.00982e+07
9.94279e+06
9.78737e+06
9.63194e+06
9.47652e+06
9.3211e+06
9.16567e+06
9.01025e+06
8.85483e+06
8.6994e+06
8.54398e+06
8.38856e+06
8.23313e+06
8.07771e+06
VECTORS FluidFlux double
0 3.70906e-09 0.0
0 3.66675e-09 0.0
0 3.62411e-09 0.0
0 3.58093e-09 0.0
0 3.53698e-09 0.0
0 3.49204e-09 0.0
0 3.44587e-09 0.0
0 3.39821e-09 0.0
0 3.3488e-09 0.0
0 3.29736e-09 0.0
0 3.24358e-09 0.0
0 3.18714e-09 0.0
0 3.12769e-09 0.0
0 3.06486e-09 0.0
0 2.99823e-09 0.0
0 2.92735e-09 0.0
0 2.85174e-09 0.0
0 2.77087e-09 0.0
0 2.68414e-09 0.0
0 2.59092e-09 0.0
0 2.49049e-09 0.0
0 2.25644e-09 0.0
0 1.87495e-09 0.0
0 1.49729e-09 0.0
0 1.17287e-09 0.0
0 9.11573e-10 0.0
0 7.09123e-10 0.0
0 5.57267e-10 0.0
0 4.4773e-10 0.0
0 3.73655e-10 0.0
0 3.30046e-10 0.0
0 3.15311e-10 0.0
SCALARS Porosity double
LOOKUP_TABLE default
0.16
0.16
0.16
0.16
0.16
0.16
0.16
0.16
0.16
0.16
0.16
0.16
0.16
0.16
0.16
0.16
0.16
0.16
0.16
0.16
0.16
0.16
0.16
0.16
0.16
0.16
0.16
0.16
0.16
0.16
0.16
0.16
SCALARS Cell_Number double
LOOKUP_TABLE default
0
1
2
3
4
5
6
7
8
9
10
11
12
13
14
15
16
17
18
19
20
21
22
23
24
25
26
27
28
29
30
31
VECTORS Permeability double
1 0.695251 0.0
1 0.390484 0.0
1 0.390446 0.0
1 0.390408 0.0
1 0.390371 0.0
1 0.390335 0.0
1 0.390299 0.0
1 0.390264 0.0
1 0.390229 0.0
1 0.390194 0.0
1 0.390161 0.0
1 0.390127 0.0
1 0.390095 0.0
1 0.390063 0.0
1 0.390032 0.0
1 0.390001 0.0
1 0.389972 0.0
1 0.389943 0.0
1 0.389915 0.0
1 0.389179 0.0
1 0.195964 0.0
1 0.00346237 0.0
1 0.00344458 0.0
1 0.00343051 0.0
1 0.00341953 0.0
1 0.003411 0.0
1 0.00340434 0.0
1 0.00339906 0.0
1 0.00339474 0.0
1 0.00339095 0.0
1 0.00321826 0.0
1 0.00152369 0.0
VECTORS indp double
0 0.5 0
0 1 0
0 1 0
0 1 0
0 1 0
0 1 0
0 1 0
0 1 0
0 1 0
0 1 0
0 1 0
0 1 0
0 1 0
0 1 0
0 1 0
0 1 0
0 1 0
0 1 0
0 1 0
0 1 0
0 0.5 0
0 0 0
0 0 0
0 0 0
0 0 0
0 0 0
0 0 0
0 0 0
0 0 0
0 0 0
0 0 0
0 0 0
