# vtk DataFile Version 3.0

ASCII
DATASET STRUCTURED_GRID
DIMENSIONS 2 33 1
POINTS 66 DOUBLE
0 0 0.0
0.012 0 0.0
0 0.000375 0.0
0.012 0.000375 0.0
0 0.00075 0.0
0.012 0.00075 0.0
0 0.001125 0.0
0.012 0.001125 0.0
0 0.0015 0.0
0.012 0.0015 0.0
0 0.001875 0.0
0.012 0.001875 0.0
0 0.00225 0.0
0.012 0.00225 0.0
0 0.002625 0.0
0.012 0.002625 0.0
0 0.003 0.0
0.012 0.003 0.0
0 0.003375 0.0
0.012 0.003375 0.0
0 0.00375 0.0
0.012 0.00375 0.0
0 0.004125 0.0
0.012 0.004125 0.0
0 0.0045 0.0
0.012 0.0045 0.0
0 0.004875 0.0
0.012 0.004875 0.0
0 0.00525 0.0
0.012 0.00525 0.0
0 0.005625 0.0
0.012 0.005625 0.0
0 0.006 0.0
0.012 0.006 0.0
0 0.006375 0.0
0.012 0.006375 0.0
0 0.00675 0.0
0.012 0.00675 0.0
0 0.007125 0.0
0.012 0.007125 0.0
0 0.0075 0.0
0.012 0.0075 0.0
0 0.007875 0.0
0.012 0.007875 0.0
0 0.00825 0.0
0.012 0.00825 0.0
0 0.008625 0.0
0.012 0.008625 0.0
0 0.009 0.0
0.012 0.009 0.0
0 0.009375 0.0
0.012 0.009375 0.0
0 0.00975 0.0
0.012 0.00975 0.0
0 0.010125 0.0
0.012 0.010125 0.0
0 0.0105 0.0
0.012 0.0105 0.0
0 0.010875 0.0
0.012 0.010875 0.0
0 0.01125 0.0
0.012 0.01125 0.0
0 0.011625 0.0
0.012 0.011625 0.0
0 0.012 0.0
0.012 0.012 0.0
CELL_DATA 32
SCALARS Fluid_Pressure double
LOOKUP_TABLE default
9.34225e+06
9.3387e+06
9.33518e+06
9.33169e+06
9.32823e+06
9.3248e+06
9.32141e+06
9.31804e+06
9.31471e+06
9.31142e+06
9.30815e+06
9.30493e+06
9.30173e+06
9.29858e+06
9.29546e+06
9.29239e+06
9.28935e+06
9.28635e+06
9.2834e+06
9.28049e+06
9.27763e+06
9.27481e+06
9.27204e+06
9.26932e+06
9.26665e+06
9.26404e+06
9.26146e+06
8.97964e+06
8.71438e+06
8.46967e+06
8.24221e+06
8.00074e+06
SCALARS Fluid_Pressure_Exact double
LOOKUP_TABLE default
1.28958e+07
1.27404e+07
1.2585e+07
1.24296e+07
1.22741e+07
1.21187e+07
1.19633e+07
1.18079e+07
1.16524e+07
1.1497e+07
1.13416e+07
1.11862e+07
1.10308e+07
1.08753e+07
1.07199e+07
1.05645e+07
1.04091e+07
1.02536e+07
1.00982e+07
9.94279e+06
9.78737e+06
9.63194e+06
9.47652e+06
9.3211e+06
9.16567e+06
9.01025e+06
8.85483e+06
8.6994e+06
8.54398e+06
8.38856e+06
8.23313e+06
8.07771e+06
VECTORS FluidFlux double
0 3.71404e-09 0.0
0 3.68176e-09 0.0
0 3.64934e-09 0.0
0 3.61671e-09 0.0
0 3.58378e-09 0.0
0 3.55046e-09 0.0
0 3.51668e-09 0.0
0 3.48234e-09 0.0
0 3.44737e-09 0.0
0 3.41168e-09 0.0
0 3.3752e-09 0.0
0 3.33784e-09 0.0
0 3.29954e-09 0.0
0 3.26023e-09 0.0
0 3.21982e-09 0.0
0 3.17827e-09 0.0
0 3.13551e-09 0.0
0 3.09148e-09 0.0
0 3.04616e-09 0.0
0 2.99949e-09 0.0
0 2.95145e-09 0.0
0 2.90204e-09 0.0
0 2.85125e-09 0.0
0 2.79909e-09 0.0
0 2.74561e-09 0.0
0 2.69087e-09 0.0
0 2.63493e-09 0.0
0 2.52137e-09 0.0
0 2.33429e-09 0.0
0 2.14708e-09 0.0
0 2.01195e-09 0.0
0 1.96212e-09 0.0
SCALARS Porosity double
LOOKUP_TABLE default
0.16
0.16
0.16
0.16
0.16
0.16
0.16
0.16
0.16
0.16
0.16
0.16
0.16
0.16
0.16
0.16
0.16
0.16
0.16
0.16
0.16
0.16
0.16
0.16
0.16
0.16
0.16
0.16
0.16
0.16
0.16
0.16
SCALARS Cell_Number double
LOOKUP_TABLE default
0
1
2
3
4
5
6
7
8
9
10
11
12
13
14
15
16
17
18
19
20
21
22
23
24
25
26
27
28
29
30
31
VECTORS Permeability double
1 0.69536 0.0
1 0.3907 0.0
1 0.390662 0.0
1 0.390624 0.0
1 0.390587 0.0
1 0.39055 0.0
1 0.390513 0.0
1 0.390476 0.0
1 0.39044 0.0
1 0.390405 0.0
1 0.390369 0.0
1 0.390335 0.0
1 0.3903 0.0
1 0.390266 0.0
1 0.390232 0.0
1 0.390199 0.0
1 0.390166 0.0
1 0.390134 0.0
1 0.390102 0.0
1 0.390071 0.0
1 0.39004 0.0
1 0.39001 0.0
1 0.38998 0.0
1 0.389951 0.0
1 0.389923 0.0
1 0.389135 0.0
1 0.195915 0.0
1 0.00345625 0.0
1 0.00343256 0.0
1 0.00341002 0.0
1 0.00322312 0.0
1 0.00152371 0.0
VECTORS indp double
0 0.5 0
0 1 0
0 1 0
0 1 0
0 1 0
0 1 0
0 1 0
0 1 0
0 1 0
0 1 0
0 1 0
0 1 0
0 1 0
0 1 0
0 1 0
0 1 0
0 1 0
0 1 0
0 1 0
0 1 0
0 1 0
0 1 0
0 1 0
0 1 0
0 1 0
0 1 0
0 0.5 0
0 0 0
0 0 0
0 0 0
0 0 0
0 0 0
