# vtk DataFile Version 3.0

ASCII
DATASET STRUCTURED_GRID
DIMENSIONS 2 33 1
POINTS 66 DOUBLE
0 0 0.0
0.012 0 0.0
0 0.000375 0.0
0.012 0.000375 0.0
0 0.00075 0.0
0.012 0.00075 0.0
0 0.001125 0.0
0.012 0.001125 0.0
0 0.0015 0.0
0.012 0.0015 0.0
0 0.001875 0.0
0.012 0.001875 0.0
0 0.00225 0.0
0.012 0.00225 0.0
0 0.002625 0.0
0.012 0.002625 0.0
0 0.003 0.0
0.012 0.003 0.0
0 0.003375 0.0
0.012 0.003375 0.0
0 0.00375 0.0
0.012 0.00375 0.0
0 0.004125 0.0
0.012 0.004125 0.0
0 0.0045 0.0
0.012 0.0045 0.0
0 0.004875 0.0
0.012 0.004875 0.0
0 0.00525 0.0
0.012 0.00525 0.0
0 0.005625 0.0
0.012 0.005625 0.0
0 0.006 0.0
0.012 0.006 0.0
0 0.006375 0.0
0.012 0.006375 0.0
0 0.00675 0.0
0.012 0.00675 0.0
0 0.007125 0.0
0.012 0.007125 0.0
0 0.0075 0.0
0.012 0.0075 0.0
0 0.007875 0.0
0.012 0.007875 0.0
0 0.00825 0.0
0.012 0.00825 0.0
0 0.008625 0.0
0.012 0.008625 0.0
0 0.009 0.0
0.012 0.009 0.0
0 0.009375 0.0
0.012 0.009375 0.0
0 0.00975 0.0
0.012 0.00975 0.0
0 0.010125 0.0
0.012 0.010125 0.0
0 0.0105 0.0
0.012 0.0105 0.0
0 0.010875 0.0
0.012 0.010875 0.0
0 0.01125 0.0
0.012 0.01125 0.0
0 0.011625 0.0
0.012 0.011625 0.0
0 0.012 0.0
0.012 0.012 0.0
CELL_DATA 32
SCALARS Fluid_Pressure double
LOOKUP_TABLE default
9.34052e+06
9.33693e+06
9.33333e+06
9.32972e+06
9.3261e+06
9.32247e+06
9.31883e+06
9.31518e+06
9.31151e+06
9.30783e+06
9.30413e+06
9.30041e+06
9.29667e+06
9.29291e+06
9.28912e+06
9.2853e+06
9.28144e+06
9.27755e+06
9.27361e+06
9.26963e+06
9.2656e+06
9.26151e+06
9.25736e+06
9.25313e+06
9.24883e+06
9.24445e+06
9.23997e+06
9.23537e+06
8.85514e+06
8.54716e+06
8.27861e+06
8.00085e+06
SCALARS Fluid_Pressure_Exact double
LOOKUP_TABLE default
1.28958e+07
1.27404e+07
1.2585e+07
1.24296e+07
1.22741e+07
1.21187e+07
1.19633e+07
1.18079e+07
1.16524e+07
1.1497e+07
1.13416e+07
1.11862e+07
1.10308e+07
1.08753e+07
1.07199e+07
1.05645e+07
1.04091e+07
1.02536e+07
1.00982e+07
9.94279e+06
9.78737e+06
9.63194e+06
9.47652e+06
9.3211e+06
9.16567e+06
9.01025e+06
8.85483e+06
8.6994e+06
8.54398e+06
8.38856e+06
8.23313e+06
8.07771e+06
VECTORS FluidFlux double
0 3.7344e-09 0.0
0 3.74298e-09 0.0
0 3.75185e-09 0.0
0 3.7612e-09 0.0
0 3.77124e-09 0.0
0 3.78215e-09 0.0
0 3.79415e-09 0.0
0 3.80746e-09 0.0
0 3.82229e-09 0.0
0 3.83889e-09 0.0
0 3.8575e-09 0.0
0 3.87838e-09 0.0
0 3.90179e-09 0.0
0 3.92804e-09 0.0
0 3.95744e-09 0.0
0 3.9903e-09 0.0
0 4.02699e-09 0.0
0 4.06786e-09 0.0
0 4.11334e-09 0.0
0 4.16384e-09 0.0
0 4.21982e-09 0.0
0 4.28177e-09 0.0
0 4.35021e-09 0.0
0 4.42572e-09 0.0
0 4.50889e-09 0.0
0 4.60036e-09 0.0
0 4.7008e-09 0.0
0 4.12799e-09 0.0
0 3.15843e-09 0.0
0 2.62474e-09 0.0
0 2.34623e-09 0.0
0 2.25694e-09 0.0
SCALARS Porosity double
LOOKUP_TABLE default
0.16
0.16
0.16
0.16
0.16
0.16
0.16
0.16
0.16
0.16
0.16
0.16
0.16
0.16
0.16
0.16
0.16
0.16
0.16
0.16
0.16
0.16
0.16
0.16
0.16
0.16
0.16
0.16
0.16
0.16
0.16
0.16
SCALARS Cell_Number double
LOOKUP_TABLE default
0
1
2
3
4
5
6
7
8
9
10
11
12
13
14
15
16
17
18
19
20
21
22
23
24
25
26
27
28
29
30
31
VECTORS Permeability double
1 0.69535 0.0
1 0.39068 0.0
1 0.39064 0.0
1 0.390601 0.0
1 0.390561 0.0
1 0.390521 0.0
1 0.390481 0.0
1 0.390441 0.0
1 0.390401 0.0
1 0.390361 0.0
1 0.39032 0.0
1 0.390279 0.0
1 0.390238 0.0
1 0.390196 0.0
1 0.390155 0.0
1 0.390113 0.0
1 0.39007 0.0
1 0.390027 0.0
1 0.389984 0.0
1 0.38994 0.0
1 0.389895 0.0
1 0.389849 0.0
1 0.389803 0.0
1 0.389756 0.0
1 0.389709 0.0
1 0.38966 0.0
1 0.388591 0.0
1 0.195501 0.0
1 0.00344057 0.0
1 0.00341363 0.0
1 0.003224 0.0
1 0.00152371 0.0
VECTORS indp double
0 0.5 0
0 1 0
0 1 0
0 1 0
0 1 0
0 1 0
0 1 0
0 1 0
0 1 0
0 1 0
0 1 0
0 1 0
0 1 0
0 1 0
0 1 0
0 1 0
0 1 0
0 1 0
0 1 0
0 1 0
0 1 0
0 1 0
0 1 0
0 1 0
0 1 0
0 1 0
0 1 0
0 0.5 0
0 0 0
0 0 0
0 0 0
0 0 0
