# vtk DataFile Version 3.0

ASCII
DATASET STRUCTURED_GRID
DIMENSIONS 2 33 1
POINTS 66 DOUBLE
0 0 0.0
0.012 0 0.0
0 0.000375 0.0
0.012 0.000375 0.0
0 0.00075 0.0
0.012 0.00075 0.0
0 0.001125 0.0
0.012 0.001125 0.0
0 0.0015 0.0
0.012 0.0015 0.0
0 0.001875 0.0
0.012 0.001875 0.0
0 0.00225 0.0
0.012 0.00225 0.0
0 0.002625 0.0
0.012 0.002625 0.0
0 0.003 0.0
0.012 0.003 0.0
0 0.003375 0.0
0.012 0.003375 0.0
0 0.00375 0.0
0.012 0.00375 0.0
0 0.004125 0.0
0.012 0.004125 0.0
0 0.0045 0.0
0.012 0.0045 0.0
0 0.004875 0.0
0.012 0.004875 0.0
0 0.00525 0.0
0.012 0.00525 0.0
0 0.005625 0.0
0.012 0.005625 0.0
0 0.006 0.0
0.012 0.006 0.0
0 0.006375 0.0
0.012 0.006375 0.0
0 0.00675 0.0
0.012 0.00675 0.0
0 0.007125 0.0
0.012 0.007125 0.0
0 0.0075 0.0
0.012 0.0075 0.0
0 0.007875 0.0
0.012 0.007875 0.0
0 0.00825 0.0
0.012 0.00825 0.0
0 0.008625 0.0
0.012 0.008625 0.0
0 0.009 0.0
0.012 0.009 0.0
0 0.009375 0.0
0.012 0.009375 0.0
0 0.00975 0.0
0.012 0.00975 0.0
0 0.010125 0.0
0.012 0.010125 0.0
0 0.0105 0.0
0.012 0.0105 0.0
0 0.010875 0.0
0.012 0.010875 0.0
0 0.01125 0.0
0.012 0.01125 0.0
0 0.011625 0.0
0.012 0.011625 0.0
0 0.012 0.0
0.012 0.012 0.0
CELL_DATA 32
SCALARS Fluid_Pressure double
LOOKUP_TABLE default
9.36288e+06
9.35933e+06
9.35581e+06
9.35231e+06
9.34884e+06
9.3454e+06
9.34199e+06
9.33861e+06
9.33526e+06
9.33194e+06
9.32864e+06
9.32537e+06
9.32213e+06
9.31892e+06
9.31574e+06
9.31259e+06
9.30947e+06
9.30638e+06
9.30331e+06
9.30028e+06
9.29727e+06
9.29429e+06
9.29135e+06
9.28843e+06
9.28554e+06
9.28268e+06
9.27985e+06
9.27704e+06
8.96549e+06
8.65493e+06
8.34492e+06
8.00105e+06
SCALARS Fluid_Pressure_Exact double
LOOKUP_TABLE default
1.28958e+07
1.27404e+07
1.2585e+07
1.24296e+07
1.22741e+07
1.21187e+07
1.19633e+07
1.18079e+07
1.16524e+07
1.1497e+07
1.13416e+07
1.11862e+07
1.10308e+07
1.08753e+07
1.07199e+07
1.05645e+07
1.04091e+07
1.02536e+07
1.00982e+07
9.94279e+06
9.78737e+06
9.63194e+06
9.47652e+06
9.3211e+06
9.16567e+06
9.01025e+06
8.85483e+06
8.6994e+06
8.54398e+06
8.38856e+06
8.23313e+06
8.07771e+06
VECTORS FluidFlux double
0 3.71521e-09 0.0
0 3.6853e-09 0.0
0 3.65538e-09 0.0
0 3.62545e-09 0.0
0 3.5955e-09 0.0
0 3.56552e-09 0.0
0 3.53552e-09 0.0
0 3.50548e-09 0.0
0 3.4754e-09 0.0
0 3.44528e-09 0.0
0 3.41512e-09 0.0
0 3.38491e-09 0.0
0 3.35465e-09 0.0
0 3.32434e-09 0.0
0 3.29397e-09 0.0
0 3.26354e-09 0.0
0 3.23306e-09 0.0
0 3.20252e-09 0.0
0 3.17193e-09 0.0
0 3.14128e-09 0.0
0 3.11057e-09 0.0
0 3.0798e-09 0.0
0 3.04899e-09 0.0
0 3.01812e-09 0.0
0 2.98721e-09 0.0
0 2.95626e-09 0.0
0 2.92527e-09 0.0
0 2.89424e-09 0.0
0 2.86171e-09 0.0
0 2.82927e-09 0.0
0 2.80414e-09 0.0
0 2.79442e-09 0.0
SCALARS Porosity double
LOOKUP_TABLE default
0.16
0.16
0.16
0.16
0.16
0.16
0.16
0.16
0.16
0.16
0.16
0.16
0.16
0.16
0.16
0.16
0.16
0.16
0.16
0.16
0.16
0.16
0.16
0.16
0.16
0.16
0.16
0.16
0.16
0.16
0.16
0.16
SCALARS Cell_Number double
LOOKUP_TABLE default
0
1
2
3
4
5
6
7
8
9
10
11
12
13
14
15
16
17
18
19
20
21
22
23
24
25
26
27
28
29
30
31
VECTORS Permeability double
1 0.695473 0.0
1 0.390926 0.0
1 0.390888 0.0
1 0.39085 0.0
1 0.390812 0.0
1 0.390775 0.0
1 0.390738 0.0
1 0.390701 0.0
1 0.390665 0.0
1 0.390629 0.0
1 0.390593 0.0
1 0.390558 0.0
1 0.390522 0.0
1 0.390488 0.0
1 0.390453 0.0
1 0.390419 0.0
1 0.390385 0.0
1 0.390352 0.0
1 0.390319 0.0
1 0.390286 0.0
1 0.390253 0.0
1 0.390221 0.0
1 0.390189 0.0
1 0.390158 0.0
1 0.390126 0.0
1 0.390095 0.0
1 0.389225 0.0
1 0.195918 0.0
1 0.00345004 0.0
1 0.0034194 0.0
1 0.0032256 0.0
1 0.00152372 0.0
VECTORS indp double
0 0.5 0
0 1 0
0 1 0
0 1 0
0 1 0
0 1 0
0 1 0
0 1 0
0 1 0
0 1 0
0 1 0
0 1 0
0 1 0
0 1 0
0 1 0
0 1 0
0 1 0
0 1 0
0 1 0
0 1 0
0 1 0
0 1 0
0 1 0
0 1 0
0 1 0
0 1 0
0 1 0
0 0.5 0
0 0 0
0 0 0
0 0 0
0 0 0
