# vtk DataFile Version 3.0

ASCII
DATASET STRUCTURED_GRID
DIMENSIONS 2 33 1
POINTS 66 DOUBLE
0 0 0.0
0.012 0 0.0
0 0.000375 0.0
0.012 0.000375 0.0
0 0.00075 0.0
0.012 0.00075 0.0
0 0.001125 0.0
0.012 0.001125 0.0
0 0.0015 0.0
0.012 0.0015 0.0
0 0.001875 0.0
0.012 0.001875 0.0
0 0.00225 0.0
0.012 0.00225 0.0
0 0.002625 0.0
0.012 0.002625 0.0
0 0.003 0.0
0.012 0.003 0.0
0 0.003375 0.0
0.012 0.003375 0.0
0 0.00375 0.0
0.012 0.00375 0.0
0 0.004125 0.0
0.012 0.004125 0.0
0 0.0045 0.0
0.012 0.0045 0.0
0 0.004875 0.0
0.012 0.004875 0.0
0 0.00525 0.0
0.012 0.00525 0.0
0 0.005625 0.0
0.012 0.005625 0.0
0 0.006 0.0
0.012 0.006 0.0
0 0.006375 0.0
0.012 0.006375 0.0
0 0.00675 0.0
0.012 0.00675 0.0
0 0.007125 0.0
0.012 0.007125 0.0
0 0.0075 0.0
0.012 0.0075 0.0
0 0.007875 0.0
0.012 0.007875 0.0
0 0.00825 0.0
0.012 0.00825 0.0
0 0.008625 0.0
0.012 0.008625 0.0
0 0.009 0.0
0.012 0.009 0.0
0 0.009375 0.0
0.012 0.009375 0.0
0 0.00975 0.0
0.012 0.00975 0.0
0 0.010125 0.0
0.012 0.010125 0.0
0 0.0105 0.0
0.012 0.0105 0.0
0 0.010875 0.0
0.012 0.010875 0.0
0 0.01125 0.0
0.012 0.01125 0.0
0 0.011625 0.0
0.012 0.011625 0.0
0 0.012 0.0
0.012 0.012 0.0
CELL_DATA 32
SCALARS Fluid_Pressure double
LOOKUP_TABLE default
9.36905e+06
9.36549e+06
9.36197e+06
9.35848e+06
9.35501e+06
9.35158e+06
9.34817e+06
9.34479e+06
9.34144e+06
9.33812e+06
9.33482e+06
9.33156e+06
9.32832e+06
9.32511e+06
9.32194e+06
9.31879e+06
9.31567e+06
9.31257e+06
9.30951e+06
9.30648e+06
9.30347e+06
9.3005e+06
9.29755e+06
9.29463e+06
9.29174e+06
9.28888e+06
9.28605e+06
9.28323e+06
8.97128e+06
8.65968e+06
8.34776e+06
8.00106e+06
SCALARS Fluid_Pressure_Exact double
LOOKUP_TABLE default
1.28958e+07
1.27404e+07
1.2585e+07
1.24296e+07
1.22741e+07
1.21187e+07
1.19633e+07
1.18079e+07
1.16524e+07
1.1497e+07
1.13416e+07
1.11862e+07
1.10308e+07
1.08753e+07
1.07199e+07
1.05645e+07
1.04091e+07
1.02536e+07
1.00982e+07
9.94279e+06
9.78737e+06
9.63194e+06
9.47652e+06
9.3211e+06
9.16567e+06
9.01025e+06
8.85483e+06
8.6994e+06
8.54398e+06
8.38856e+06
8.23313e+06
8.07771e+06
VECTORS FluidFlux double
0 3.71508e-09 0.0
0 3.68493e-09 0.0
0 3.65477e-09 0.0
0 3.62461e-09 0.0
0 3.59443e-09 0.0
0 3.56426e-09 0.0
0 3.53407e-09 0.0
0 3.50387e-09 0.0
0 3.47366e-09 0.0
0 3.44344e-09 0.0
0 3.41321e-09 0.0
0 3.38297e-09 0.0
0 3.35272e-09 0.0
0 3.32245e-09 0.0
0 3.29217e-09 0.0
0 3.26188e-09 0.0
0 3.23158e-09 0.0
0 3.20128e-09 0.0
0 3.17096e-09 0.0
0 3.14063e-09 0.0
0 3.1103e-09 0.0
0 3.07997e-09 0.0
0 3.04963e-09 0.0
0 3.0193e-09 0.0
0 2.98897e-09 0.0
0 2.95864e-09 0.0
0 2.92832e-09 0.0
0 2.89802e-09 0.0
0 2.86871e-09 0.0
0 2.84293e-09 0.0
0 2.82438e-09 0.0
0 2.81742e-09 0.0
SCALARS Porosity double
LOOKUP_TABLE default
0.16
0.16
0.16
0.16
0.16
0.16
0.16
0.16
0.16
0.16
0.16
0.16
0.16
0.16
0.16
0.16
0.16
0.16
0.16
0.16
0.16
0.16
0.16
0.16
0.16
0.16
0.16
0.16
0.16
0.16
0.16
0.16
SCALARS Cell_Number double
LOOKUP_TABLE default
0
1
2
3
4
5
6
7
8
9
10
11
12
13
14
15
16
17
18
19
20
21
22
23
24
25
26
27
28
29
30
31
VECTORS Permeability double
1 0.695506 0.0
1 0.390993 0.0
1 0.390955 0.0
1 0.390917 0.0
1 0.39088 0.0
1 0.390842 0.0
1 0.390805 0.0
1 0.390769 0.0
1 0.390732 0.0
1 0.390696 0.0
1 0.390661 0.0
1 0.390625 0.0
1 0.39059 0.0
1 0.390555 0.0
1 0.390521 0.0
1 0.390487 0.0
1 0.390453 0.0
1 0.390419 0.0
1 0.390386 0.0
1 0.390353 0.0
1 0.390321 0.0
1 0.390289 0.0
1 0.390257 0.0
1 0.390225 0.0
1 0.390194 0.0
1 0.390163 0.0
1 0.389292 0.0
1 0.195951 0.0
1 0.00345048 0.0
1 0.00341966 0.0
1 0.00322566 0.0
1 0.00152372 0.0
VECTORS indp double
0 0.5 0
0 1 0
0 1 0
0 1 0
0 1 0
0 1 0
0 1 0
0 1 0
0 1 0
0 1 0
0 1 0
0 1 0
0 1 0
0 1 0
0 1 0
0 1 0
0 1 0
0 1 0
0 1 0
0 1 0
0 1 0
0 1 0
0 1 0
0 1 0
0 1 0
0 1 0
0 1 0
0 0.5 0
0 0 0
0 0 0
0 0 0
0 0 0
