# vtk DataFile Version 3.0

ASCII
DATASET STRUCTURED_GRID
DIMENSIONS 2 33 1
POINTS 66 DOUBLE
0 0 0.0
0.012 0 0.0
0 0.000375 0.0
0.012 0.000375 0.0
0 0.00075 0.0
0.012 0.00075 0.0
0 0.001125 0.0
0.012 0.001125 0.0
0 0.0015 0.0
0.012 0.0015 0.0
0 0.001875 0.0
0.012 0.001875 0.0
0 0.00225 0.0
0.012 0.00225 0.0
0 0.002625 0.0
0.012 0.002625 0.0
0 0.003 0.0
0.012 0.003 0.0
0 0.003375 0.0
0.012 0.003375 0.0
0 0.00375 0.0
0.012 0.00375 0.0
0 0.004125 0.0
0.012 0.004125 0.0
0 0.0045 0.0
0.012 0.0045 0.0
0 0.004875 0.0
0.012 0.004875 0.0
0 0.00525 0.0
0.012 0.00525 0.0
0 0.005625 0.0
0.012 0.005625 0.0
0 0.006 0.0
0.012 0.006 0.0
0 0.006375 0.0
0.012 0.006375 0.0
0 0.00675 0.0
0.012 0.00675 0.0
0 0.007125 0.0
0.012 0.007125 0.0
0 0.0075 0.0
0.012 0.0075 0.0
0 0.007875 0.0
0.012 0.007875 0.0
0 0.00825 0.0
0.012 0.00825 0.0
0 0.008625 0.0
0.012 0.008625 0.0
0 0.009 0.0
0.012 0.009 0.0
0 0.009375 0.0
0.012 0.009375 0.0
0 0.00975 0.0
0.012 0.00975 0.0
0 0.010125 0.0
0.012 0.010125 0.0
0 0.0105 0.0
0.012 0.0105 0.0
0 0.010875 0.0
0.012 0.010875 0.0
0 0.01125 0.0
0.012 0.01125 0.0
0 0.011625 0.0
0.012 0.011625 0.0
0 0.012 0.0
0.012 0.012 0.0
CELL_DATA 32
SCALARS Fluid_Pressure double
LOOKUP_TABLE default
9.40476e+06
9.40121e+06
9.39769e+06
9.39419e+06
9.39072e+06
9.38728e+06
9.38386e+06
9.38047e+06
9.37711e+06
9.37377e+06
9.37046e+06
9.36718e+06
9.36392e+06
9.36069e+06
9.35749e+06
9.35431e+06
9.35116e+06
9.34803e+06
9.34494e+06
9.34186e+06
9.33882e+06
9.3358e+06
9.33281e+06
9.32984e+06
9.3269e+06
9.32399e+06
9.3211e+06
9.31822e+06
8.99924e+06
8.67969e+06
8.35871e+06
8.00109e+06
SCALARS Fluid_Pressure_Exact double
LOOKUP_TABLE default
1.28958e+07
1.27404e+07
1.2585e+07
1.24296e+07
1.22741e+07
1.21187e+07
1.19633e+07
1.18079e+07
1.16524e+07
1.1497e+07
1.13416e+07
1.11862e+07
1.10308e+07
1.08753e+07
1.07199e+07
1.05645e+07
1.04091e+07
1.02536e+07
1.00982e+07
9.94279e+06
9.78737e+06
9.63194e+06
9.47652e+06
9.3211e+06
9.16567e+06
9.01025e+06
8.85483e+06
8.6994e+06
8.54398e+06
8.38856e+06
8.23313e+06
8.07771e+06
VECTORS FluidFlux double
0 3.71611e-09 0.0
0 3.68802e-09 0.0
0 3.65992e-09 0.0
0 3.63183e-09 0.0
0 3.60374e-09 0.0
0 3.57565e-09 0.0
0 3.54758e-09 0.0
0 3.51952e-09 0.0
0 3.49146e-09 0.0
0 3.46343e-09 0.0
0 3.43541e-09 0.0
0 3.4074e-09 0.0
0 3.37942e-09 0.0
0 3.35146e-09 0.0
0 3.32353e-09 0.0
0 3.29562e-09 0.0
0 3.26774e-09 0.0
0 3.23989e-09 0.0
0 3.21208e-09 0.0
0 3.1843e-09 0.0
0 3.15655e-09 0.0
0 3.12885e-09 0.0
0 3.10119e-09 0.0
0 3.07357e-09 0.0
0 3.04599e-09 0.0
0 3.01846e-09 0.0
0 2.99098e-09 0.0
0 2.96355e-09 0.0
0 2.93925e-09 0.0
0 2.92132e-09 0.0
0 2.91007e-09 0.0
0 2.90614e-09 0.0
SCALARS Porosity double
LOOKUP_TABLE default
0.16
0.16
0.16
0.16
0.16
0.16
0.16
0.16
0.16
0.16
0.16
0.16
0.16
0.16
0.16
0.16
0.16
0.16
0.16
0.16
0.16
0.16
0.16
0.16
0.16
0.16
0.16
0.16
0.16
0.16
0.16
0.16
SCALARS Cell_Number double
LOOKUP_TABLE default
0
1
2
3
4
5
6
7
8
9
10
11
12
13
14
15
16
17
18
19
20
21
22
23
24
25
26
27
28
29
30
31
VECTORS Permeability double
1 0.695702 0.0
1 0.391385 0.0
1 0.391346 0.0
1 0.391308 0.0
1 0.391271 0.0
1 0.391233 0.0
1 0.391196 0.0
1 0.391159 0.0
1 0.391123 0.0
1 0.391086 0.0
1 0.39105 0.0
1 0.391015 0.0
1 0.390979 0.0
1 0.390944 0.0
1 0.39091 0.0
1 0.390875 0.0
1 0.390841 0.0
1 0.390807 0.0
1 0.390773 0.0
1 0.39074 0.0
1 0.390707 0.0
1 0.390674 0.0
1 0.390642 0.0
1 0.39061 0.0
1 0.390578 0.0
1 0.390546 0.0
1 0.389654 0.0
1 0.196123 0.0
1 0.00345239 0.0
1 0.00342066 0.0
1 0.00322593 0.0
1 0.00152372 0.0
VECTORS indp double
0 0.5 0
0 1 0
0 1 0
0 1 0
0 1 0
0 1 0
0 1 0
0 1 0
0 1 0
0 1 0
0 1 0
0 1 0
0 1 0
0 1 0
0 1 0
0 1 0
0 1 0
0 1 0
0 1 0
0 1 0
0 1 0
0 1 0
0 1 0
0 1 0
0 1 0
0 1 0
0 1 0
0 0.5 0
0 0 0
0 0 0
0 0 0
0 0 0
