# vtk DataFile Version 3.0

ASCII
DATASET STRUCTURED_GRID
DIMENSIONS 2 33 1
POINTS 66 DOUBLE
0 0 0.0
0.012 0 0.0
0 0.000375 0.0
0.012 0.000375 0.0
0 0.00075 0.0
0.012 0.00075 0.0
0 0.001125 0.0
0.012 0.001125 0.0
0 0.0015 0.0
0.012 0.0015 0.0
0 0.001875 0.0
0.012 0.001875 0.0
0 0.00225 0.0
0.012 0.00225 0.0
0 0.002625 0.0
0.012 0.002625 0.0
0 0.003 0.0
0.012 0.003 0.0
0 0.003375 0.0
0.012 0.003375 0.0
0 0.00375 0.0
0.012 0.00375 0.0
0 0.004125 0.0
0.012 0.004125 0.0
0 0.0045 0.0
0.012 0.0045 0.0
0 0.004875 0.0
0.012 0.004875 0.0
0 0.00525 0.0
0.012 0.00525 0.0
0 0.005625 0.0
0.012 0.005625 0.0
0 0.006 0.0
0.012 0.006 0.0
0 0.006375 0.0
0.012 0.006375 0.0
0 0.00675 0.0
0.012 0.00675 0.0
0 0.007125 0.0
0.012 0.007125 0.0
0 0.0075 0.0
0.012 0.0075 0.0
0 0.007875 0.0
0.012 0.007875 0.0
0 0.00825 0.0
0.012 0.00825 0.0
0 0.008625 0.0
0.012 0.008625 0.0
0 0.009 0.0
0.012 0.009 0.0
0 0.009375 0.0
0.012 0.009375 0.0
0 0.00975 0.0
0.012 0.00975 0.0
0 0.010125 0.0
0.012 0.010125 0.0
0 0.0105 0.0
0.012 0.0105 0.0
0 0.010875 0.0
0.012 0.010875 0.0
0 0.01125 0.0
0.012 0.01125 0.0
0 0.011625 0.0
0.012 0.011625 0.0
0 0.012 0.0
0.012 0.012 0.0
CELL_DATA 32
SCALARS Fluid_Pressure double
LOOKUP_TABLE default
9.39319e+06
9.38964e+06
9.38611e+06
9.38262e+06
9.37915e+06
9.37571e+06
9.3723e+06
9.36891e+06
9.36556e+06
9.36222e+06
9.35892e+06
9.35565e+06
9.3524e+06
9.34918e+06
9.34598e+06
9.34282e+06
9.33968e+06
9.33657e+06
9.33348e+06
9.33042e+06
9.32739e+06
9.32439e+06
9.32142e+06
9.31847e+06
9.31555e+06
9.31265e+06
9.30978e+06
9.30693e+06
8.99048e+06
8.67362e+06
8.35547e+06
8.00108e+06
SCALARS Fluid_Pressure_Exact double
LOOKUP_TABLE default
1.28958e+07
1.27404e+07
1.2585e+07
1.24296e+07
1.22741e+07
1.21187e+07
1.19633e+07
1.18079e+07
1.16524e+07
1.1497e+07
1.13416e+07
1.11862e+07
1.10308e+07
1.08753e+07
1.07199e+07
1.05645e+07
1.04091e+07
1.02536e+07
1.00982e+07
9.94279e+06
9.78737e+06
9.63194e+06
9.47652e+06
9.3211e+06
9.16567e+06
9.01025e+06
8.85483e+06
8.6994e+06
8.54398e+06
8.38856e+06
8.23313e+06
8.07771e+06
VECTORS FluidFlux double
0 3.71568e-09 0.0
0 3.68674e-09 0.0
0 3.65779e-09 0.0
0 3.62884e-09 0.0
0 3.5999e-09 0.0
0 3.57096e-09 0.0
0 3.54203e-09 0.0
0 3.51312e-09 0.0
0 3.48421e-09 0.0
0 3.45531e-09 0.0
0 3.42644e-09 0.0
0 3.39758e-09 0.0
0 3.36874e-09 0.0
0 3.33992e-09 0.0
0 3.31112e-09 0.0
0 3.28236e-09 0.0
0 3.25361e-09 0.0
0 3.2249e-09 0.0
0 3.19622e-09 0.0
0 3.16758e-09 0.0
0 3.13897e-09 0.0
0 3.1104e-09 0.0
0 3.08187e-09 0.0
0 3.05338e-09 0.0
0 3.02493e-09 0.0
0 2.99654e-09 0.0
0 2.96819e-09 0.0
0 2.93989e-09 0.0
0 2.91471e-09 0.0
0 2.89593e-09 0.0
0 2.88405e-09 0.0
0 2.87988e-09 0.0
SCALARS Porosity double
LOOKUP_TABLE default
0.16
0.16
0.16
0.16
0.16
0.16
0.16
0.16
0.16
0.16
0.16
0.16
0.16
0.16
0.16
0.16
0.16
0.16
0.16
0.16
0.16
0.16
0.16
0.16
0.16
0.16
0.16
0.16
0.16
0.16
0.16
0.16
SCALARS Cell_Number double
LOOKUP_TABLE default
0
1
2
3
4
5
6
7
8
9
10
11
12
13
14
15
16
17
18
19
20
21
22
23
24
25
26
27
28
29
30
31
VECTORS Permeability double
1 0.695639 0.0
1 0.391258 0.0
1 0.39122 0.0
1 0.391182 0.0
1 0.391144 0.0
1 0.391106 0.0
1 0.391069 0.0
1 0.391033 0.0
1 0.390996 0.0
1 0.39096 0.0
1 0.390924 0.0
1 0.390889 0.0
1 0.390853 0.0
1 0.390818 0.0
1 0.390784 0.0
1 0.390749 0.0
1 0.390715 0.0
1 0.390682 0.0
1 0.390648 0.0
1 0.390615 0.0
1 0.390582 0.0
1 0.39055 0.0
1 0.390517 0.0
1 0.390485 0.0
1 0.390454 0.0
1 0.390422 0.0
1 0.389538 0.0
1 0.196068 0.0
1 0.0034518 0.0
1 0.00342036 0.0
1 0.00322585 0.0
1 0.00152372 0.0
VECTORS indp double
0 0.5 0
0 1 0
0 1 0
0 1 0
0 1 0
0 1 0
0 1 0
0 1 0
0 1 0
0 1 0
0 1 0
0 1 0
0 1 0
0 1 0
0 1 0
0 1 0
0 1 0
0 1 0
0 1 0
0 1 0
0 1 0
0 1 0
0 1 0
0 1 0
0 1 0
0 1 0
0 1 0
0 0.5 0
0 0 0
0 0 0
0 0 0
0 0 0
