# vtk DataFile Version 3.0

ASCII
DATASET STRUCTURED_GRID
DIMENSIONS 2 33 1
POINTS 66 DOUBLE
0 0 0.0
0.012 0 0.0
0 0.000375 0.0
0.012 0.000375 0.0
0 0.00075 0.0
0.012 0.00075 0.0
0 0.001125 0.0
0.012 0.001125 0.0
0 0.0015 0.0
0.012 0.0015 0.0
0 0.001875 0.0
0.012 0.001875 0.0
0 0.00225 0.0
0.012 0.00225 0.0
0 0.002625 0.0
0.012 0.002625 0.0
0 0.003 0.0
0.012 0.003 0.0
0 0.003375 0.0
0.012 0.003375 0.0
0 0.00375 0.0
0.012 0.00375 0.0
0 0.004125 0.0
0.012 0.004125 0.0
0 0.0045 0.0
0.012 0.0045 0.0
0 0.004875 0.0
0.012 0.004875 0.0
0 0.00525 0.0
0.012 0.00525 0.0
0 0.005625 0.0
0.012 0.005625 0.0
0 0.006 0.0
0.012 0.006 0.0
0 0.006375 0.0
0.012 0.006375 0.0
0 0.00675 0.0
0.012 0.00675 0.0
0 0.007125 0.0
0.012 0.007125 0.0
0 0.0075 0.0
0.012 0.0075 0.0
0 0.007875 0.0
0.012 0.007875 0.0
0 0.00825 0.0
0.012 0.00825 0.0
0 0.008625 0.0
0.012 0.008625 0.0
0 0.009 0.0
0.012 0.009 0.0
0 0.009375 0.0
0.012 0.009375 0.0
0 0.00975 0.0
0.012 0.00975 0.0
0 0.010125 0.0
0.012 0.010125 0.0
0 0.0105 0.0
0.012 0.0105 0.0
0 0.010875 0.0
0.012 0.010875 0.0
0 0.01125 0.0
0.012 0.01125 0.0
0 0.011625 0.0
0.012 0.011625 0.0
0 0.012 0.0
0.012 0.012 0.0
CELL_DATA 32
SCALARS Fluid_Pressure double
LOOKUP_TABLE default
9.39908e+06
9.39548e+06
9.39185e+06
9.38819e+06
9.3845e+06
9.38079e+06
9.37704e+06
9.37326e+06
9.36945e+06
9.36559e+06
9.36171e+06
9.35777e+06
9.3538e+06
9.34978e+06
9.3457e+06
9.34157e+06
9.33738e+06
9.33312e+06
9.32879e+06
9.32439e+06
9.31991e+06
9.31533e+06
9.31066e+06
9.30588e+06
9.30099e+06
9.29598e+06
9.29083e+06
9.28555e+06
9.28007e+06
8.81378e+06
8.41435e+06
8.00126e+06
SCALARS Fluid_Pressure_Exact double
LOOKUP_TABLE default
1.28958e+07
1.27404e+07
1.2585e+07
1.24296e+07
1.22741e+07
1.21187e+07
1.19633e+07
1.18079e+07
1.16524e+07
1.1497e+07
1.13416e+07
1.11862e+07
1.10308e+07
1.08753e+07
1.07199e+07
1.05645e+07
1.04091e+07
1.02536e+07
1.00982e+07
9.94279e+06
9.78737e+06
9.63194e+06
9.47652e+06
9.3211e+06
9.16567e+06
9.01025e+06
8.85483e+06
8.6994e+06
8.54398e+06
8.38856e+06
8.23313e+06
8.07771e+06
VECTORS FluidFlux double
0 3.74405e-09 0.0
0 3.77195e-09 0.0
0 3.80026e-09 0.0
0 3.82922e-09 0.0
0 3.85912e-09 0.0
0 3.89021e-09 0.0
0 3.92278e-09 0.0
0 3.95712e-09 0.0
0 3.99351e-09 0.0
0 4.03226e-09 0.0
0 4.07368e-09 0.0
0 4.1181e-09 0.0
0 4.16586e-09 0.0
0 4.21731e-09 0.0
0 4.27283e-09 0.0
0 4.33282e-09 0.0
0 4.39767e-09 0.0
0 4.46784e-09 0.0
0 4.54378e-09 0.0
0 4.62599e-09 0.0
0 4.71497e-09 0.0
0 4.81127e-09 0.0
0 4.9155e-09 0.0
0 5.02825e-09 0.0
0 5.1502e-09 0.0
0 5.28205e-09 0.0
0 5.42455e-09 0.0
0 5.57847e-09 0.0
0 4.97164e-09 0.0
0 3.95699e-09 0.0
0 3.49301e-09 0.0
0 3.35654e-09 0.0
SCALARS Porosity double
LOOKUP_TABLE default
0.16
0.16
0.16
0.16
0.16
0.16
0.16
0.16
0.16
0.16
0.16
0.16
0.16
0.16
0.16
0.16
0.16
0.16
0.16
0.16
0.16
0.16
0.16
0.16
0.16
0.16
0.16
0.16
0.16
0.16
0.16
0.16
SCALARS Cell_Number double
LOOKUP_TABLE default
0
1
2
3
4
5
6
7
8
9
10
11
12
13
14
15
16
17
18
19
20
21
22
23
24
25
26
27
28
29
30
31
VECTORS Permeability double
1 0.69567 0.0
1 0.39132 0.0
1 0.39128 0.0
1 0.39124 0.0
1 0.391199 0.0
1 0.391158 0.0
1 0.391117 0.0
1 0.391075 0.0
1 0.391033 0.0
1 0.39099 0.0
1 0.390947 0.0
1 0.390904 0.0
1 0.39086 0.0
1 0.390815 0.0
1 0.39077 0.0
1 0.390724 0.0
1 0.390677 0.0
1 0.39063 0.0
1 0.390582 0.0
1 0.390533 0.0
1 0.390483 0.0
1 0.390432 0.0
1 0.390379 0.0
1 0.390326 0.0
1 0.390271 0.0
1 0.390215 0.0
1 0.390157 0.0
1 0.388848 0.0
1 0.195507 0.0
1 0.00342658 0.0
1 0.00322727 0.0
1 0.00152372 0.0
VECTORS indp double
0 0.5 0
0 1 0
0 1 0
0 1 0
0 1 0
0 1 0
0 1 0
0 1 0
0 1 0
0 1 0
0 1 0
0 1 0
0 1 0
0 1 0
0 1 0
0 1 0
0 1 0
0 1 0
0 1 0
0 1 0
0 1 0
0 1 0
0 1 0
0 1 0
0 1 0
0 1 0
0 1 0
0 1 0
0 0.5 0
0 0 0
0 0 0
0 0 0
