# vtk DataFile Version 3.0

ASCII
DATASET STRUCTURED_GRID
DIMENSIONS 2 33 1
POINTS 66 DOUBLE
0 0 0.0
0.012 0 0.0
0 0.000375 0.0
0.012 0.000375 0.0
0 0.00075 0.0
0.012 0.00075 0.0
0 0.001125 0.0
0.012 0.001125 0.0
0 0.0015 0.0
0.012 0.0015 0.0
0 0.001875 0.0
0.012 0.001875 0.0
0 0.00225 0.0
0.012 0.00225 0.0
0 0.002625 0.0
0.012 0.002625 0.0
0 0.003 0.0
0.012 0.003 0.0
0 0.003375 0.0
0.012 0.003375 0.0
0 0.00375 0.0
0.012 0.00375 0.0
0 0.004125 0.0
0.012 0.004125 0.0
0 0.0045 0.0
0.012 0.0045 0.0
0 0.004875 0.0
0.012 0.004875 0.0
0 0.00525 0.0
0.012 0.00525 0.0
0 0.005625 0.0
0.012 0.005625 0.0
0 0.006 0.0
0.012 0.006 0.0
0 0.006375 0.0
0.012 0.006375 0.0
0 0.00675 0.0
0.012 0.00675 0.0
0 0.007125 0.0
0.012 0.007125 0.0
0 0.0075 0.0
0.012 0.0075 0.0
0 0.007875 0.0
0.012 0.007875 0.0
0 0.00825 0.0
0.012 0.00825 0.0
0 0.008625 0.0
0.012 0.008625 0.0
0 0.009 0.0
0.012 0.009 0.0
0 0.009375 0.0
0.012 0.009375 0.0
0 0.00975 0.0
0.012 0.00975 0.0
0 0.010125 0.0
0.012 0.010125 0.0
0 0.0105 0.0
0.012 0.0105 0.0
0 0.010875 0.0
0.012 0.010875 0.0
0 0.01125 0.0
0.012 0.01125 0.0
0 0.011625 0.0
0.012 0.011625 0.0
0 0.012 0.0
0.012 0.012 0.0
CELL_DATA 32
SCALARS Fluid_Pressure double
LOOKUP_TABLE default
9.39467e+06
9.39107e+06
9.38745e+06
9.38381e+06
9.38015e+06
9.37647e+06
9.37277e+06
9.36905e+06
9.3653e+06
9.36154e+06
9.35776e+06
9.35396e+06
9.35014e+06
9.3463e+06
9.34245e+06
9.33858e+06
9.33469e+06
9.3308e+06
9.32689e+06
9.32297e+06
9.31904e+06
9.31511e+06
9.31118e+06
9.30725e+06
9.30333e+06
9.29942e+06
9.29552e+06
9.29165e+06
9.28778e+06
8.85712e+06
8.44458e+06
8.00135e+06
SCALARS Fluid_Pressure_Exact double
LOOKUP_TABLE default
1.28958e+07
1.27404e+07
1.2585e+07
1.24296e+07
1.22741e+07
1.21187e+07
1.19633e+07
1.18079e+07
1.16524e+07
1.1497e+07
1.13416e+07
1.11862e+07
1.10308e+07
1.08753e+07
1.07199e+07
1.05645e+07
1.04091e+07
1.02536e+07
1.00982e+07
9.94279e+06
9.78737e+06
9.63194e+06
9.47652e+06
9.3211e+06
9.16567e+06
9.01025e+06
8.85483e+06
8.6994e+06
8.54398e+06
8.38856e+06
8.23313e+06
8.07771e+06
VECTORS FluidFlux double
0 3.74095e-09 0.0
0 3.76252e-09 0.0
0 3.78404e-09 0.0
0 3.8055e-09 0.0
0 3.82684e-09 0.0
0 3.84803e-09 0.0
0 3.86903e-09 0.0
0 3.88978e-09 0.0
0 3.91022e-09 0.0
0 3.93026e-09 0.0
0 3.94983e-09 0.0
0 3.96882e-09 0.0
0 3.98712e-09 0.0
0 4.00457e-09 0.0
0 4.02103e-09 0.0
0 4.03631e-09 0.0
0 4.0502e-09 0.0
0 4.06246e-09 0.0
0 4.07281e-09 0.0
0 4.08096e-09 0.0
0 4.08654e-09 0.0
0 4.08918e-09 0.0
0 4.08842e-09 0.0
0 4.08378e-09 0.0
0 4.07469e-09 0.0
0 4.06055e-09 0.0
0 4.04067e-09 0.0
0 4.01428e-09 0.0
0 3.9805e-09 0.0
0 3.85568e-09 0.0
0 3.67579e-09 0.0
0 3.60164e-09 0.0
SCALARS Porosity double
LOOKUP_TABLE default
0.16
0.16
0.16
0.16
0.16
0.16
0.16
0.16
0.16
0.16
0.16
0.16
0.16
0.16
0.16
0.16
0.16
0.16
0.16
0.16
0.16
0.16
0.16
0.16
0.16
0.16
0.16
0.16
0.16
0.16
0.16
0.16
SCALARS Cell_Number double
LOOKUP_TABLE default
0
1
2
3
4
5
6
7
8
9
10
11
12
13
14
15
16
17
18
19
20
21
22
23
24
25
26
27
28
29
30
31
VECTORS Permeability double
1 0.695646 0.0
1 0.391272 0.0
1 0.391232 0.0
1 0.391192 0.0
1 0.391152 0.0
1 0.391111 0.0
1 0.391071 0.0
1 0.39103 0.0
1 0.390989 0.0
1 0.390947 0.0
1 0.390906 0.0
1 0.390864 0.0
1 0.390822 0.0
1 0.39078 0.0
1 0.390737 0.0
1 0.390695 0.0
1 0.390652 0.0
1 0.390609 0.0
1 0.390567 0.0
1 0.390524 0.0
1 0.390481 0.0
1 0.390438 0.0
1 0.390395 0.0
1 0.390352 0.0
1 0.390309 0.0
1 0.390267 0.0
1 0.390224 0.0
1 0.389023 0.0
1 0.195647 0.0
1 0.00342909 0.0
1 0.003228 0.0
1 0.00152372 0.0
VECTORS indp double
0 0.5 0
0 1 0
0 1 0
0 1 0
0 1 0
0 1 0
0 1 0
0 1 0
0 1 0
0 1 0
0 1 0
0 1 0
0 1 0
0 1 0
0 1 0
0 1 0
0 1 0
0 1 0
0 1 0
0 1 0
0 1 0
0 1 0
0 1 0
0 1 0
0 1 0
0 1 0
0 1 0
0 1 0
0 0.5 0
0 0 0
0 0 0
0 0 0
