# vtk DataFile Version 3.0

ASCII
DATASET STRUCTURED_GRID
DIMENSIONS 2 33 1
POINTS 66 DOUBLE
0 0 0.0
0.012 0 0.0
0 0.000375 0.0
0.012 0.000375 0.0
0 0.00075 0.0
0.012 0.00075 0.0
0 0.001125 0.0
0.012 0.001125 0.0
0 0.0015 0.0
0.012 0.0015 0.0
0 0.001875 0.0
0.012 0.001875 0.0
0 0.00225 0.0
0.012 0.00225 0.0
0 0.002625 0.0
0.012 0.002625 0.0
0 0.003 0.0
0.012 0.003 0.0
0 0.003375 0.0
0.012 0.003375 0.0
0 0.00375 0.0
0.012 0.00375 0.0
0 0.004125 0.0
0.012 0.004125 0.0
0 0.0045 0.0
0.012 0.0045 0.0
0 0.004875 0.0
0.012 0.004875 0.0
0 0.00525 0.0
0.012 0.00525 0.0
0 0.005625 0.0
0.012 0.005625 0.0
0 0.006 0.0
0.012 0.006 0.0
0 0.006375 0.0
0.012 0.006375 0.0
0 0.00675 0.0
0.012 0.00675 0.0
0 0.007125 0.0
0.012 0.007125 0.0
0 0.0075 0.0
0.012 0.0075 0.0
0 0.007875 0.0
0.012 0.007875 0.0
0 0.00825 0.0
0.012 0.00825 0.0
0 0.008625 0.0
0.012 0.008625 0.0
0 0.009 0.0
0.012 0.009 0.0
0 0.009375 0.0
0.012 0.009375 0.0
0 0.00975 0.0
0.012 0.00975 0.0
0 0.010125 0.0
0.012 0.010125 0.0
0 0.0105 0.0
0.012 0.0105 0.0
0 0.010875 0.0
0.012 0.010875 0.0
0 0.01125 0.0
0.012 0.01125 0.0
0 0.011625 0.0
0.012 0.011625 0.0
0 0.012 0.0
0.012 0.012 0.0
CELL_DATA 32
SCALARS Fluid_Pressure double
LOOKUP_TABLE default
9.31342e+06
8.98154e+06
8.71567e+06
8.50979e+06
8.35532e+06
8.24273e+06
8.16279e+06
8.10734e+06
8.0697e+06
8.04462e+06
8.0282e+06
8.01761e+06
8.01087e+06
8.00665e+06
8.00403e+06
8.00242e+06
8.00144e+06
8.00085e+06
8.0005e+06
8.00029e+06
8.00017e+06
8.0001e+06
8.00006e+06
8.00003e+06
8.00002e+06
8.00001e+06
8.00001e+06
8e+06
8e+06
8e+06
8e+06
8e+06
SCALARS Fluid_Pressure_Exact double
LOOKUP_TABLE default
1.28958e+07
1.27404e+07
1.2585e+07
1.24296e+07
1.22741e+07
1.21187e+07
1.19633e+07
1.18079e+07
1.16524e+07
1.1497e+07
1.13416e+07
1.11862e+07
1.10308e+07
1.08753e+07
1.07199e+07
1.05645e+07
1.04091e+07
1.02536e+07
1.00982e+07
9.94279e+06
9.78737e+06
9.63194e+06
9.47652e+06
9.3211e+06
9.16567e+06
9.01025e+06
8.85483e+06
8.6994e+06
8.54398e+06
8.38856e+06
8.23313e+06
8.07771e+06
VECTORS FluidFlux double
0 3.40003e-09 0.0
0 2.75648e-09 0.0
0 2.16269e-09 0.0
0 1.64465e-09 0.0
0 1.21487e-09 0.0
0 8.7379e-10 0.0
0 6.13422e-10 0.0
0 4.21289e-10 0.0
0 2.83648e-10 0.0
0 1.87576e-10 0.0
0 1.22039e-10 0.0
0 7.82318e-11 0.0
0 4.94758e-11 0.0
0 3.0904e-11 0.0
0 1.90837e-11 0.0
0 1.16595e-11 0.0
0 7.05215e-12 0.0
0 4.22416e-12 0.0
0 2.50567e-12 0.0
0 1.47098e-12 0.0
0 8.53262e-13 0.0
0 4.87331e-13 0.0
0 2.72081e-13 0.0
0 1.46253e-13 0.0
0 7.30776e-14 0.0
0 3.06756e-14 0.0
0 6.14337e-15 0.0
0 -8.05547e-15 0.0
0 -1.62631e-14 0.0
0 -2.09253e-14 0.0
0 -2.33615e-14 0.0
0 -2.41379e-14 0.0
SCALARS Porosity double
LOOKUP_TABLE default
0.16
0.16
0.16
0.16
0.16
0.16
0.16
0.16
0.16
0.16
0.16
0.16
0.16
0.16
0.16
0.16
0.16
0.16
0.16
0.16
0.16
0.16
0.16
0.16
0.16
0.16
0.16
0.16
0.16
0.16
0.16
0.16
SCALARS Cell_Number double
LOOKUP_TABLE default
0
1
2
3
4
5
6
7
8
9
10
11
12
13
14
15
16
17
18
19
20
21
22
23
24
25
26
27
28
29
30
31
VECTORS Permeability double
1 0.501734 0.0
1 0.00345732 0.0
1 0.00343723 0.0
1 0.00342215 0.0
1 0.00341116 0.0
1 0.00340333 0.0
1 0.00339789 0.0
1 0.00339419 0.0
1 0.00339171 0.0
1 0.00339008 0.0
1 0.00338903 0.0
1 0.00338836 0.0
1 0.00338794 0.0
1 0.00338768 0.0
1 0.00338752 0.0
1 0.00338742 0.0
1 0.00338736 0.0
1 0.00338732 0.0
1 0.0033873 0.0
1 0.00338729 0.0
1 0.00338728 0.0
1 0.00338728 0.0
1 0.00338727 0.0
1 0.00338727 0.0
1 0.00338727 0.0
1 0.00338727 0.0
1 0.00338727 0.0
1 0.00338727 0.0
1 0.00338727 0.0
1 0.00338727 0.0
1 0.00321733 0.0
1 0.00152369 0.0
VECTORS indp double
0 0 0
0 0 0
0 0 0
0 0 0
0 0 0
0 0 0
0 0 0
0 0 0
0 0 0
0 0 0
0 0 0
0 0 0
0 0 0
0 0 0
0 0 0
0 0 0
0 0 0
0 0 0
0 0 0
0 0 0
0 0 0
0 0 0
0 0 0
0 0 0
0 0 0
0 0 0
0 0 0
0 0 0
0 0 0
0 0 0
0 0 0
0 0 0
