# vtk DataFile Version 3.0

ASCII
DATASET STRUCTURED_GRID
DIMENSIONS 2 33 1
POINTS 66 DOUBLE
0 0 0.0
0.012 0 0.0
0 0.000375 0.0
0.012 0.000375 0.0
0 0.00075 0.0
0.012 0.00075 0.0
0 0.001125 0.0
0.012 0.001125 0.0
0 0.0015 0.0
0.012 0.0015 0.0
0 0.001875 0.0
0.012 0.001875 0.0
0 0.00225 0.0
0.012 0.00225 0.0
0 0.002625 0.0
0.012 0.002625 0.0
0 0.003 0.0
0.012 0.003 0.0
0 0.003375 0.0
0.012 0.003375 0.0
0 0.00375 0.0
0.012 0.00375 0.0
0 0.004125 0.0
0.012 0.004125 0.0
0 0.0045 0.0
0.012 0.0045 0.0
0 0.004875 0.0
0.012 0.004875 0.0
0 0.00525 0.0
0.012 0.00525 0.0
0 0.005625 0.0
0.012 0.005625 0.0
0 0.006 0.0
0.012 0.006 0.0
0 0.006375 0.0
0.012 0.006375 0.0
0 0.00675 0.0
0.012 0.00675 0.0
0 0.007125 0.0
0.012 0.007125 0.0
0 0.0075 0.0
0.012 0.0075 0.0
0 0.007875 0.0
0.012 0.007875 0.0
0 0.00825 0.0
0.012 0.00825 0.0
0 0.008625 0.0
0.012 0.008625 0.0
0 0.009 0.0
0.012 0.009 0.0
0 0.009375 0.0
0.012 0.009375 0.0
0 0.00975 0.0
0.012 0.00975 0.0
0 0.010125 0.0
0.012 0.010125 0.0
0 0.0105 0.0
0.012 0.0105 0.0
0 0.010875 0.0
0.012 0.010875 0.0
0 0.01125 0.0
0.012 0.01125 0.0
0 0.011625 0.0
0.012 0.011625 0.0
0 0.012 0.0
0.012 0.012 0.0
CELL_DATA 32
SCALARS Fluid_Pressure double
LOOKUP_TABLE default
9.39013e+06
9.38655e+06
9.38297e+06
9.37939e+06
9.3758e+06
9.37221e+06
9.36863e+06
9.36504e+06
9.36144e+06
9.35785e+06
9.35425e+06
9.35066e+06
9.34706e+06
9.34346e+06
9.33985e+06
9.33625e+06
9.33264e+06
9.32904e+06
9.32543e+06
9.32181e+06
9.3182e+06
9.31459e+06
9.31097e+06
9.30736e+06
9.30374e+06
9.30012e+06
9.29649e+06
9.29287e+06
9.28923e+06
8.87968e+06
8.46512e+06
8.00142e+06
SCALARS Fluid_Pressure_Exact double
LOOKUP_TABLE default
1.28958e+07
1.27404e+07
1.2585e+07
1.24296e+07
1.22741e+07
1.21187e+07
1.19633e+07
1.18079e+07
1.16524e+07
1.1497e+07
1.13416e+07
1.11862e+07
1.10308e+07
1.08753e+07
1.07199e+07
1.05645e+07
1.04091e+07
1.02536e+07
1.00982e+07
9.94279e+06
9.78737e+06
9.63194e+06
9.47652e+06
9.3211e+06
9.16567e+06
9.01025e+06
8.85483e+06
8.6994e+06
8.54398e+06
8.38856e+06
8.23313e+06
8.07771e+06
VECTORS FluidFlux double
0 3.73093e-09 0.0
0 3.73247e-09 0.0
0 3.73402e-09 0.0
0 3.73555e-09 0.0
0 3.73708e-09 0.0
0 3.73861e-09 0.0
0 3.74012e-09 0.0
0 3.74162e-09 0.0
0 3.74312e-09 0.0
0 3.74459e-09 0.0
0 3.74606e-09 0.0
0 3.7475e-09 0.0
0 3.74893e-09 0.0
0 3.75035e-09 0.0
0 3.75174e-09 0.0
0 3.75311e-09 0.0
0 3.75447e-09 0.0
0 3.7558e-09 0.0
0 3.75711e-09 0.0
0 3.75841e-09 0.0
0 3.75968e-09 0.0
0 3.76093e-09 0.0
0 3.76216e-09 0.0
0 3.76337e-09 0.0
0 3.76456e-09 0.0
0 3.76573e-09 0.0
0 3.76688e-09 0.0
0 3.76802e-09 0.0
0 3.76914e-09 0.0
0 3.76944e-09 0.0
0 3.76873e-09 0.0
0 3.76827e-09 0.0
SCALARS Porosity double
LOOKUP_TABLE default
0.16
0.16
0.16
0.16
0.16
0.16
0.16
0.16
0.16
0.16
0.16
0.16
0.16
0.16
0.16
0.16
0.16
0.16
0.16
0.16
0.16
0.16
0.16
0.16
0.16
0.16
0.16
0.16
0.16
0.16
0.16
0.16
SCALARS Cell_Number double
LOOKUP_TABLE default
0
1
2
3
4
5
6
7
8
9
10
11
12
13
14
15
16
17
18
19
20
21
22
23
24
25
26
27
28
29
30
31
VECTORS Permeability double
1 0.695621 0.0
1 0.391223 0.0
1 0.391184 0.0
1 0.391145 0.0
1 0.391105 0.0
1 0.391066 0.0
1 0.391027 0.0
1 0.390988 0.0
1 0.390948 0.0
1 0.390909 0.0
1 0.390869 0.0
1 0.39083 0.0
1 0.390791 0.0
1 0.390751 0.0
1 0.390712 0.0
1 0.390672 0.0
1 0.390633 0.0
1 0.390593 0.0
1 0.390554 0.0
1 0.390514 0.0
1 0.390475 0.0
1 0.390435 0.0
1 0.390396 0.0
1 0.390356 0.0
1 0.390317 0.0
1 0.390277 0.0
1 0.390238 0.0
1 0.389095 0.0
1 0.195712 0.0
1 0.00343062 0.0
1 0.0032285 0.0
1 0.00152373 0.0
VECTORS indp double
0 0.5 0
0 1 0
0 1 0
0 1 0
0 1 0
0 1 0
0 1 0
0 1 0
0 1 0
0 1 0
0 1 0
0 1 0
0 1 0
0 1 0
0 1 0
0 1 0
0 1 0
0 1 0
0 1 0
0 1 0
0 1 0
0 1 0
0 1 0
0 1 0
0 1 0
0 1 0
0 1 0
0 1 0
0 0.5 0
0 0 0
0 0 0
0 0 0
