# vtk DataFile Version 3.0

ASCII
DATASET STRUCTURED_GRID
DIMENSIONS 2 33 1
POINTS 66 DOUBLE
0 0 0.0
0.012 0 0.0
0 0.000375 0.0
0.012 0.000375 0.0
0 0.00075 0.0
0.012 0.00075 0.0
0 0.001125 0.0
0.012 0.001125 0.0
0 0.0015 0.0
0.012 0.0015 0.0
0 0.001875 0.0
0.012 0.001875 0.0
0 0.00225 0.0
0.012 0.00225 0.0
0 0.002625 0.0
0.012 0.002625 0.0
0 0.003 0.0
0.012 0.003 0.0
0 0.003375 0.0
0.012 0.003375 0.0
0 0.00375 0.0
0.012 0.00375 0.0
0 0.004125 0.0
0.012 0.004125 0.0
0 0.0045 0.0
0.012 0.0045 0.0
0 0.004875 0.0
0.012 0.004875 0.0
0 0.00525 0.0
0.012 0.00525 0.0
0 0.005625 0.0
0.012 0.005625 0.0
0 0.006 0.0
0.012 0.006 0.0
0 0.006375 0.0
0.012 0.006375 0.0
0 0.00675 0.0
0.012 0.00675 0.0
0 0.007125 0.0
0.012 0.007125 0.0
0 0.0075 0.0
0.012 0.0075 0.0
0 0.007875 0.0
0.012 0.007875 0.0
0 0.00825 0.0
0.012 0.00825 0.0
0 0.008625 0.0
0.012 0.008625 0.0
0 0.009 0.0
0.012 0.009 0.0
0 0.009375 0.0
0.012 0.009375 0.0
0 0.00975 0.0
0.012 0.00975 0.0
0 0.010125 0.0
0.012 0.010125 0.0
0 0.0105 0.0
0.012 0.0105 0.0
0 0.010875 0.0
0.012 0.010875 0.0
0 0.01125 0.0
0.012 0.01125 0.0
0 0.011625 0.0
0.012 0.011625 0.0
0 0.012 0.0
0.012 0.012 0.0
CELL_DATA 32
SCALARS Fluid_Pressure double
LOOKUP_TABLE default
9.39142e+06
9.38784e+06
9.38425e+06
9.38065e+06
9.37706e+06
9.37345e+06
9.36984e+06
9.36623e+06
9.36261e+06
9.35899e+06
9.35536e+06
9.35173e+06
9.3481e+06
9.34446e+06
9.34082e+06
9.33718e+06
9.33353e+06
9.32988e+06
9.32623e+06
9.32258e+06
9.31892e+06
9.31527e+06
9.31161e+06
9.30796e+06
9.3043e+06
9.30064e+06
9.29699e+06
9.29334e+06
9.28966e+06
8.87717e+06
8.46241e+06
8.00141e+06
SCALARS Fluid_Pressure_Exact double
LOOKUP_TABLE default
1.28958e+07
1.27404e+07
1.2585e+07
1.24296e+07
1.22741e+07
1.21187e+07
1.19633e+07
1.18079e+07
1.16524e+07
1.1497e+07
1.13416e+07
1.11862e+07
1.10308e+07
1.08753e+07
1.07199e+07
1.05645e+07
1.04091e+07
1.02536e+07
1.00982e+07
9.94279e+06
9.78737e+06
9.63194e+06
9.47652e+06
9.3211e+06
9.16567e+06
9.01025e+06
8.85483e+06
8.6994e+06
8.54398e+06
8.38856e+06
8.23313e+06
8.07771e+06
VECTORS FluidFlux double
0 3.73275e-09 0.0
0 3.73791e-09 0.0
0 3.74303e-09 0.0
0 3.74808e-09 0.0
0 3.75305e-09 0.0
0 3.7579e-09 0.0
0 3.76262e-09 0.0
0 3.76716e-09 0.0
0 3.77153e-09 0.0
0 3.77568e-09 0.0
0 3.7796e-09 0.0
0 3.78327e-09 0.0
0 3.78668e-09 0.0
0 3.78979e-09 0.0
0 3.79261e-09 0.0
0 3.79511e-09 0.0
0 3.79729e-09 0.0
0 3.79913e-09 0.0
0 3.80063e-09 0.0
0 3.80178e-09 0.0
0 3.80259e-09 0.0
0 3.80305e-09 0.0
0 3.80317e-09 0.0
0 3.80296e-09 0.0
0 3.80242e-09 0.0
0 3.80158e-09 0.0
0 3.80044e-09 0.0
0 3.79904e-09 0.0
0 3.79739e-09 0.0
0 3.78368e-09 0.0
0 3.7586e-09 0.0
0 3.74631e-09 0.0
SCALARS Porosity double
LOOKUP_TABLE default
0.16
0.16
0.16
0.16
0.16
0.16
0.16
0.16
0.16
0.16
0.16
0.16
0.16
0.16
0.16
0.16
0.16
0.16
0.16
0.16
0.16
0.16
0.16
0.16
0.16
0.16
0.16
0.16
0.16
0.16
0.16
0.16
SCALARS Cell_Number double
LOOKUP_TABLE default
0
1
2
3
4
5
6
7
8
9
10
11
12
13
14
15
16
17
18
19
20
21
22
23
24
25
26
27
28
29
30
31
VECTORS Permeability double
1 0.695628 0.0
1 0.391237 0.0
1 0.391198 0.0
1 0.391158 0.0
1 0.391119 0.0
1 0.39108 0.0
1 0.39104 0.0
1 0.391 0.0
1 0.390961 0.0
1 0.390921 0.0
1 0.390881 0.0
1 0.390841 0.0
1 0.390802 0.0
1 0.390762 0.0
1 0.390722 0.0
1 0.390682 0.0
1 0.390642 0.0
1 0.390602 0.0
1 0.390562 0.0
1 0.390522 0.0
1 0.390482 0.0
1 0.390442 0.0
1 0.390402 0.0
1 0.390362 0.0
1 0.390323 0.0
1 0.390283 0.0
1 0.390243 0.0
1 0.389092 0.0
1 0.195707 0.0
1 0.00343043 0.0
1 0.00322843 0.0
1 0.00152373 0.0
VECTORS indp double
0 0.5 0
0 1 0
0 1 0
0 1 0
0 1 0
0 1 0
0 1 0
0 1 0
0 1 0
0 1 0
0 1 0
0 1 0
0 1 0
0 1 0
0 1 0
0 1 0
0 1 0
0 1 0
0 1 0
0 1 0
0 1 0
0 1 0
0 1 0
0 1 0
0 1 0
0 1 0
0 1 0
0 1 0
0 0.5 0
0 0 0
0 0 0
0 0 0
