# vtk DataFile Version 3.0

ASCII
DATASET STRUCTURED_GRID
DIMENSIONS 2 33 1
POINTS 66 DOUBLE
0 0 0.0
0.012 0 0.0
0 0.000375 0.0
0.012 0.000375 0.0
0 0.00075 0.0
0.012 0.00075 0.0
0 0.001125 0.0
0.012 0.001125 0.0
0 0.0015 0.0
0.012 0.0015 0.0
0 0.001875 0.0
0.012 0.001875 0.0
0 0.00225 0.0
0.012 0.00225 0.0
0 0.002625 0.0
0.012 0.002625 0.0
0 0.003 0.0
0.012 0.003 0.0
0 0.003375 0.0
0.012 0.003375 0.0
0 0.00375 0.0
0.012 0.00375 0.0
0 0.004125 0.0
0.012 0.004125 0.0
0 0.0045 0.0
0.012 0.0045 0.0
0 0.004875 0.0
0.012 0.004875 0.0
0 0.00525 0.0
0.012 0.00525 0.0
0 0.005625 0.0
0.012 0.005625 0.0
0 0.006 0.0
0.012 0.006 0.0
0 0.006375 0.0
0.012 0.006375 0.0
0 0.00675 0.0
0.012 0.00675 0.0
0 0.007125 0.0
0.012 0.007125 0.0
0 0.0075 0.0
0.012 0.0075 0.0
0 0.007875 0.0
0.012 0.007875 0.0
0 0.00825 0.0
0.012 0.00825 0.0
0 0.008625 0.0
0.012 0.008625 0.0
0 0.009 0.0
0.012 0.009 0.0
0 0.009375 0.0
0.012 0.009375 0.0
0 0.00975 0.0
0.012 0.00975 0.0
0 0.010125 0.0
0.012 0.010125 0.0
0 0.0105 0.0
0.012 0.0105 0.0
0 0.010875 0.0
0.012 0.010875 0.0
0 0.01125 0.0
0.012 0.01125 0.0
0 0.011625 0.0
0.012 0.011625 0.0
0 0.012 0.0
0.012 0.012 0.0
CELL_DATA 32
SCALARS Fluid_Pressure double
LOOKUP_TABLE default
9.39084e+06
9.38726e+06
9.38367e+06
9.38009e+06
9.3765e+06
9.3729e+06
9.36931e+06
9.36571e+06
9.36211e+06
9.3585e+06
9.3549e+06
9.35129e+06
9.34768e+06
9.34406e+06
9.34045e+06
9.33683e+06
9.33321e+06
9.32958e+06
9.32596e+06
9.32234e+06
9.31871e+06
9.31508e+06
9.31145e+06
9.30782e+06
9.30419e+06
9.30055e+06
9.29692e+06
9.29329e+06
9.28963e+06
8.879e+06
8.46428e+06
8.00141e+06
SCALARS Fluid_Pressure_Exact double
LOOKUP_TABLE default
1.28958e+07
1.27404e+07
1.2585e+07
1.24296e+07
1.22741e+07
1.21187e+07
1.19633e+07
1.18079e+07
1.16524e+07
1.1497e+07
1.13416e+07
1.11862e+07
1.10308e+07
1.08753e+07
1.07199e+07
1.05645e+07
1.04091e+07
1.02536e+07
1.00982e+07
9.94279e+06
9.78737e+06
9.63194e+06
9.47652e+06
9.3211e+06
9.16567e+06
9.01025e+06
8.85483e+06
8.6994e+06
8.54398e+06
8.38856e+06
8.23313e+06
8.07771e+06
VECTORS FluidFlux double
0 3.73158e-09 0.0
0 3.73442e-09 0.0
0 3.73724e-09 0.0
0 3.74004e-09 0.0
0 3.7428e-09 0.0
0 3.74551e-09 0.0
0 3.74817e-09 0.0
0 3.75075e-09 0.0
0 3.75326e-09 0.0
0 3.75569e-09 0.0
0 3.75802e-09 0.0
0 3.76025e-09 0.0
0 3.76237e-09 0.0
0 3.76438e-09 0.0
0 3.76627e-09 0.0
0 3.76803e-09 0.0
0 3.76967e-09 0.0
0 3.77118e-09 0.0
0 3.77256e-09 0.0
0 3.7738e-09 0.0
0 3.77492e-09 0.0
0 3.7759e-09 0.0
0 3.77676e-09 0.0
0 3.77749e-09 0.0
0 3.77811e-09 0.0
0 3.77861e-09 0.0
0 3.779e-09 0.0
0 3.77929e-09 0.0
0 3.77949e-09 0.0
0 3.77509e-09 0.0
0 3.76604e-09 0.0
0 3.76146e-09 0.0
SCALARS Porosity double
LOOKUP_TABLE default
0.16
0.16
0.16
0.16
0.16
0.16
0.16
0.16
0.16
0.16
0.16
0.16
0.16
0.16
0.16
0.16
0.16
0.16
0.16
0.16
0.16
0.16
0.16
0.16
0.16
0.16
0.16
0.16
0.16
0.16
0.16
0.16
SCALARS Cell_Number double
LOOKUP_TABLE default
0
1
2
3
4
5
6
7
8
9
10
11
12
13
14
15
16
17
18
19
20
21
22
23
24
25
26
27
28
29
30
31
VECTORS Permeability double
1 0.695625 0.0
1 0.391231 0.0
1 0.391192 0.0
1 0.391152 0.0
1 0.391113 0.0
1 0.391074 0.0
1 0.391034 0.0
1 0.390995 0.0
1 0.390955 0.0
1 0.390916 0.0
1 0.390876 0.0
1 0.390837 0.0
1 0.390797 0.0
1 0.390758 0.0
1 0.390718 0.0
1 0.390679 0.0
1 0.390639 0.0
1 0.390599 0.0
1 0.39056 0.0
1 0.39052 0.0
1 0.39048 0.0
1 0.390441 0.0
1 0.390401 0.0
1 0.390361 0.0
1 0.390322 0.0
1 0.390282 0.0
1 0.390242 0.0
1 0.389097 0.0
1 0.195712 0.0
1 0.00343057 0.0
1 0.00322847 0.0
1 0.00152373 0.0
VECTORS indp double
0 0.5 0
0 1 0
0 1 0
0 1 0
0 1 0
0 1 0
0 1 0
0 1 0
0 1 0
0 1 0
0 1 0
0 1 0
0 1 0
0 1 0
0 1 0
0 1 0
0 1 0
0 1 0
0 1 0
0 1 0
0 1 0
0 1 0
0 1 0
0 1 0
0 1 0
0 1 0
0 1 0
0 1 0
0 0.5 0
0 0 0
0 0 0
0 0 0
