# vtk DataFile Version 3.0

ASCII
DATASET STRUCTURED_GRID
DIMENSIONS 2 33 1
POINTS 66 DOUBLE
0 0 0.0
0.012 0 0.0
0 0.000375 0.0
0.012 0.000375 0.0
0 0.00075 0.0
0.012 0.00075 0.0
0 0.001125 0.0
0.012 0.001125 0.0
0 0.0015 0.0
0.012 0.0015 0.0
0 0.001875 0.0
0.012 0.001875 0.0
0 0.00225 0.0
0.012 0.00225 0.0
0 0.002625 0.0
0.012 0.002625 0.0
0 0.003 0.0
0.012 0.003 0.0
0 0.003375 0.0
0.012 0.003375 0.0
0 0.00375 0.0
0.012 0.00375 0.0
0 0.004125 0.0
0.012 0.004125 0.0
0 0.0045 0.0
0.012 0.0045 0.0
0 0.004875 0.0
0.012 0.004875 0.0
0 0.00525 0.0
0.012 0.00525 0.0
0 0.005625 0.0
0.012 0.005625 0.0
0 0.006 0.0
0.012 0.006 0.0
0 0.006375 0.0
0.012 0.006375 0.0
0 0.00675 0.0
0.012 0.00675 0.0
0 0.007125 0.0
0.012 0.007125 0.0
0 0.0075 0.0
0.012 0.0075 0.0
0 0.007875 0.0
0.012 0.007875 0.0
0 0.00825 0.0
0.012 0.00825 0.0
0 0.008625 0.0
0.012 0.008625 0.0
0 0.009 0.0
0.012 0.009 0.0
0 0.009375 0.0
0.012 0.009375 0.0
0 0.00975 0.0
0.012 0.00975 0.0
0 0.010125 0.0
0.012 0.010125 0.0
0 0.0105 0.0
0.012 0.0105 0.0
0 0.010875 0.0
0.012 0.010875 0.0
0 0.01125 0.0
0.012 0.01125 0.0
0 0.011625 0.0
0.012 0.011625 0.0
0 0.012 0.0
0.012 0.012 0.0
CELL_DATA 32
SCALARS Fluid_Pressure double
LOOKUP_TABLE default
9.21661e+06
9.21254e+06
8.87935e+06
8.63145e+06
8.44761e+06
8.31277e+06
8.21534e+06
8.14612e+06
8.09776e+06
8.06454e+06
8.04207e+06
8.0271e+06
8.01726e+06
8.01088e+06
8.00679e+06
8.0042e+06
8.00258e+06
8.00157e+06
8.00095e+06
8.00057e+06
8.00034e+06
8.0002e+06
8.00012e+06
8.00007e+06
8.00004e+06
8.00002e+06
8.00001e+06
8.00001e+06
8.00001e+06
8e+06
8e+06
8e+06
SCALARS Fluid_Pressure_Exact double
LOOKUP_TABLE default
1.28958e+07
1.27404e+07
1.2585e+07
1.24296e+07
1.22741e+07
1.21187e+07
1.19633e+07
1.18079e+07
1.16524e+07
1.1497e+07
1.13416e+07
1.11862e+07
1.10308e+07
1.08753e+07
1.07199e+07
1.05645e+07
1.04091e+07
1.02536e+07
1.00982e+07
9.94279e+06
9.78737e+06
9.63194e+06
9.47652e+06
9.3211e+06
9.16567e+06
9.01025e+06
8.85483e+06
8.6994e+06
8.54398e+06
8.38856e+06
8.23313e+06
8.07771e+06
VECTORS FluidFlux double
0 3.96691e-09 0.0
0 3.63878e-09 0.0
0 2.67362e-09 0.0
0 1.97584e-09 0.0
0 1.45266e-09 0.0
0 1.05571e-09 0.0
0 7.55927e-10 0.0
0 5.32588e-10 0.0
0 3.69148e-10 0.0
0 2.51823e-10 0.0
0 1.69197e-10 0.0
0 1.12066e-10 0.0
0 7.32362e-11 0.0
0 4.7264e-11 0.0
0 3.01469e-11 0.0
0 1.90185e-11 0.0
0 1.18743e-11 0.0
0 7.34087e-12 0.0
0 4.49492e-12 0.0
0 2.72604e-12 0.0
0 1.63671e-12 0.0
0 9.71593e-13 0.0
0 5.68688e-13 0.0
0 3.26388e-13 0.0
0 1.81628e-13 0.0
0 9.56463e-14 0.0
0 4.48465e-14 0.0
0 1.50049e-14 0.0
0 -2.34897e-15 0.0
0 -1.21678e-14 0.0
0 -1.72439e-14 0.0
0 -1.88469e-14 0.0
SCALARS Porosity double
LOOKUP_TABLE default
0.16
0.16
0.16
0.16
0.16
0.16
0.16
0.16
0.16
0.16
0.16
0.16
0.16
0.16
0.16
0.16
0.16
0.16
0.16
0.16
0.16
0.16
0.16
0.16
0.16
0.16
0.16
0.16
0.16
0.16
0.16
0.16
SCALARS Cell_Number double
LOOKUP_TABLE default
0
1
2
3
4
5
6
7
8
9
10
11
12
13
14
15
16
17
18
19
20
21
22
23
24
25
26
27
28
29
30
31
VECTORS Permeability double
1 0.693777 0.0
1 0.195506 0.0
1 0.00344927 0.0
1 0.00343118 0.0
1 0.00341797 0.0
1 0.00340843 0.0
1 0.00340166 0.0
1 0.00339692 0.0
1 0.00339365 0.0
1 0.00339144 0.0
1 0.00338996 0.0
1 0.00338899 0.0
1 0.00338836 0.0
1 0.00338795 0.0
1 0.00338769 0.0
1 0.00338753 0.0
1 0.00338743 0.0
1 0.00338737 0.0
1 0.00338733 0.0
1 0.00338731 0.0
1 0.00338729 0.0
1 0.00338728 0.0
1 0.00338728 0.0
1 0.00338728 0.0
1 0.00338727 0.0
1 0.00338727 0.0
1 0.00338727 0.0
1 0.00338727 0.0
1 0.00338727 0.0
1 0.00338727 0.0
1 0.00321733 0.0
1 0.00152369 0.0
VECTORS indp double
0 0.5 0
0 0.5 0
0 0 0
0 0 0
0 0 0
0 0 0
0 0 0
0 0 0
0 0 0
0 0 0
0 0 0
0 0 0
0 0 0
0 0 0
0 0 0
0 0 0
0 0 0
0 0 0
0 0 0
0 0 0
0 0 0
0 0 0
0 0 0
0 0 0
0 0 0
0 0 0
0 0 0
0 0 0
0 0 0
0 0 0
0 0 0
0 0 0
