# vtk DataFile Version 3.0

ASCII
DATASET STRUCTURED_GRID
DIMENSIONS 2 33 1
POINTS 66 DOUBLE
0 0 0.0
0.012 0 0.0
0 0.000375 0.0
0.012 0.000375 0.0
0 0.00075 0.0
0.012 0.00075 0.0
0 0.001125 0.0
0.012 0.001125 0.0
0 0.0015 0.0
0.012 0.0015 0.0
0 0.001875 0.0
0.012 0.001875 0.0
0 0.00225 0.0
0.012 0.00225 0.0
0 0.002625 0.0
0.012 0.002625 0.0
0 0.003 0.0
0.012 0.003 0.0
0 0.003375 0.0
0.012 0.003375 0.0
0 0.00375 0.0
0.012 0.00375 0.0
0 0.004125 0.0
0.012 0.004125 0.0
0 0.0045 0.0
0.012 0.0045 0.0
0 0.004875 0.0
0.012 0.004875 0.0
0 0.00525 0.0
0.012 0.00525 0.0
0 0.005625 0.0
0.012 0.005625 0.0
0 0.006 0.0
0.012 0.006 0.0
0 0.006375 0.0
0.012 0.006375 0.0
0 0.00675 0.0
0.012 0.00675 0.0
0 0.007125 0.0
0.012 0.007125 0.0
0 0.0075 0.0
0.012 0.0075 0.0
0 0.007875 0.0
0.012 0.007875 0.0
0 0.00825 0.0
0.012 0.00825 0.0
0 0.008625 0.0
0.012 0.008625 0.0
0 0.009 0.0
0.012 0.009 0.0
0 0.009375 0.0
0.012 0.009375 0.0
0 0.00975 0.0
0.012 0.00975 0.0
0 0.010125 0.0
0.012 0.010125 0.0
0 0.0105 0.0
0.012 0.0105 0.0
0 0.010875 0.0
0.012 0.010875 0.0
0 0.01125 0.0
0.012 0.01125 0.0
0 0.011625 0.0
0.012 0.011625 0.0
0 0.012 0.0
0.012 0.012 0.0
CELL_DATA 32
SCALARS Fluid_Pressure double
LOOKUP_TABLE default
9.39045e+06
9.38687e+06
9.38328e+06
9.3797e+06
9.37611e+06
9.37252e+06
9.36893e+06
9.36534e+06
9.36175e+06
9.35815e+06
9.35455e+06
9.35095e+06
9.34735e+06
9.34374e+06
9.34014e+06
9.33653e+06
9.33292e+06
9.32931e+06
9.32569e+06
9.32208e+06
9.31846e+06
9.31484e+06
9.31122e+06
9.3076e+06
9.30398e+06
9.30035e+06
9.29673e+06
9.2931e+06
9.28945e+06
8.87957e+06
8.46493e+06
8.00142e+06
SCALARS Fluid_Pressure_Exact double
LOOKUP_TABLE default
1.28958e+07
1.27404e+07
1.2585e+07
1.24296e+07
1.22741e+07
1.21187e+07
1.19633e+07
1.18079e+07
1.16524e+07
1.1497e+07
1.13416e+07
1.11862e+07
1.10308e+07
1.08753e+07
1.07199e+07
1.05645e+07
1.04091e+07
1.02536e+07
1.00982e+07
9.94279e+06
9.78737e+06
9.63194e+06
9.47652e+06
9.3211e+06
9.16567e+06
9.01025e+06
8.85483e+06
8.6994e+06
8.54398e+06
8.38856e+06
8.23313e+06
8.07771e+06
VECTORS FluidFlux double
0 3.73112e-09 0.0
0 3.73303e-09 0.0
0 3.73494e-09 0.0
0 3.73684e-09 0.0
0 3.73872e-09 0.0
0 3.74059e-09 0.0
0 3.74243e-09 0.0
0 3.74424e-09 0.0
0 3.74603e-09 0.0
0 3.74778e-09 0.0
0 3.74949e-09 0.0
0 3.75116e-09 0.0
0 3.7528e-09 0.0
0 3.75438e-09 0.0
0 3.75592e-09 0.0
0 3.75741e-09 0.0
0 3.75885e-09 0.0
0 3.76025e-09 0.0
0 3.76158e-09 0.0
0 3.76287e-09 0.0
0 3.76411e-09 0.0
0 3.7653e-09 0.0
0 3.76643e-09 0.0
0 3.76752e-09 0.0
0 3.76856e-09 0.0
0 3.76956e-09 0.0
0 3.77051e-09 0.0
0 3.77143e-09 0.0
0 3.77231e-09 0.0
0 3.77134e-09 0.0
0 3.76834e-09 0.0
0 3.76675e-09 0.0
SCALARS Porosity double
LOOKUP_TABLE default
0.16
0.16
0.16
0.16
0.16
0.16
0.16
0.16
0.16
0.16
0.16
0.16
0.16
0.16
0.16
0.16
0.16
0.16
0.16
0.16
0.16
0.16
0.16
0.16
0.16
0.16
0.16
0.16
0.16
0.16
0.16
0.16
SCALARS Cell_Number double
LOOKUP_TABLE default
0
1
2
3
4
5
6
7
8
9
10
11
12
13
14
15
16
17
18
19
20
21
22
23
24
25
26
27
28
29
30
31
VECTORS Permeability double
1 0.695623 0.0
1 0.391227 0.0
1 0.391187 0.0
1 0.391148 0.0
1 0.391109 0.0
1 0.39107 0.0
1 0.39103 0.0
1 0.390991 0.0
1 0.390951 0.0
1 0.390912 0.0
1 0.390873 0.0
1 0.390833 0.0
1 0.390794 0.0
1 0.390754 0.0
1 0.390715 0.0
1 0.390675 0.0
1 0.390636 0.0
1 0.390596 0.0
1 0.390557 0.0
1 0.390517 0.0
1 0.390478 0.0
1 0.390438 0.0
1 0.390399 0.0
1 0.390359 0.0
1 0.390319 0.0
1 0.39028 0.0
1 0.39024 0.0
1 0.389097 0.0
1 0.195713 0.0
1 0.00343061 0.0
1 0.00322849 0.0
1 0.00152373 0.0
VECTORS indp double
0 0.5 0
0 1 0
0 1 0
0 1 0
0 1 0
0 1 0
0 1 0
0 1 0
0 1 0
0 1 0
0 1 0
0 1 0
0 1 0
0 1 0
0 1 0
0 1 0
0 1 0
0 1 0
0 1 0
0 1 0
0 1 0
0 1 0
0 1 0
0 1 0
0 1 0
0 1 0
0 1 0
0 1 0
0 0.5 0
0 0 0
0 0 0
0 0 0
