# vtk DataFile Version 3.0

ASCII
DATASET STRUCTURED_GRID
DIMENSIONS 2 33 1
POINTS 66 DOUBLE
0 0 0.0
0.012 0 0.0
0 0.000375 0.0
0.012 0.000375 0.0
0 0.00075 0.0
0.012 0.00075 0.0
0 0.001125 0.0
0.012 0.001125 0.0
0 0.0015 0.0
0.012 0.0015 0.0
0 0.001875 0.0
0.012 0.001875 0.0
0 0.00225 0.0
0.012 0.00225 0.0
0 0.002625 0.0
0.012 0.002625 0.0
0 0.003 0.0
0.012 0.003 0.0
0 0.003375 0.0
0.012 0.003375 0.0
0 0.00375 0.0
0.012 0.00375 0.0
0 0.004125 0.0
0.012 0.004125 0.0
0 0.0045 0.0
0.012 0.0045 0.0
0 0.004875 0.0
0.012 0.004875 0.0
0 0.00525 0.0
0.012 0.00525 0.0
0 0.005625 0.0
0.012 0.005625 0.0
0 0.006 0.0
0.012 0.006 0.0
0 0.006375 0.0
0.012 0.006375 0.0
0 0.00675 0.0
0.012 0.00675 0.0
0 0.007125 0.0
0.012 0.007125 0.0
0 0.0075 0.0
0.012 0.0075 0.0
0 0.007875 0.0
0.012 0.007875 0.0
0 0.00825 0.0
0.012 0.00825 0.0
0 0.008625 0.0
0.012 0.008625 0.0
0 0.009 0.0
0.012 0.009 0.0
0 0.009375 0.0
0.012 0.009375 0.0
0 0.00975 0.0
0.012 0.00975 0.0
0 0.010125 0.0
0.012 0.010125 0.0
0 0.0105 0.0
0.012 0.0105 0.0
0 0.010875 0.0
0.012 0.010875 0.0
0 0.01125 0.0
0.012 0.01125 0.0
0 0.011625 0.0
0.012 0.011625 0.0
0 0.012 0.0
0.012 0.012 0.0
CELL_DATA 32
SCALARS Fluid_Pressure double
LOOKUP_TABLE default
9.38681e+06
9.38323e+06
9.37965e+06
9.37606e+06
9.37248e+06
9.3689e+06
9.36531e+06
9.36172e+06
9.35813e+06
9.35454e+06
9.35095e+06
9.34736e+06
9.34377e+06
9.34017e+06
9.33658e+06
9.33298e+06
9.32938e+06
9.32578e+06
9.32218e+06
9.31857e+06
9.31497e+06
9.31136e+06
9.30776e+06
9.30415e+06
9.30054e+06
9.29693e+06
9.29331e+06
9.2897e+06
9.28607e+06
8.87765e+06
8.46412e+06
8.00141e+06
SCALARS Fluid_Pressure_Exact double
LOOKUP_TABLE default
1.28958e+07
1.27404e+07
1.2585e+07
1.24296e+07
1.22741e+07
1.21187e+07
1.19633e+07
1.18079e+07
1.16524e+07
1.1497e+07
1.13416e+07
1.11862e+07
1.10308e+07
1.08753e+07
1.07199e+07
1.05645e+07
1.04091e+07
1.02536e+07
1.00982e+07
9.94279e+06
9.78737e+06
9.63194e+06
9.47652e+06
9.3211e+06
9.16567e+06
9.01025e+06
8.85483e+06
8.6994e+06
8.54398e+06
8.38856e+06
8.23313e+06
8.07771e+06
VECTORS FluidFlux double
0 3.73066e-09 0.0
0 3.73167e-09 0.0
0 3.73268e-09 0.0
0 3.73369e-09 0.0
0 3.7347e-09 0.0
0 3.73571e-09 0.0
0 3.73672e-09 0.0
0 3.73773e-09 0.0
0 3.73874e-09 0.0
0 3.73975e-09 0.0
0 3.74075e-09 0.0
0 3.74176e-09 0.0
0 3.74277e-09 0.0
0 3.74377e-09 0.0
0 3.74477e-09 0.0
0 3.74577e-09 0.0
0 3.74677e-09 0.0
0 3.74777e-09 0.0
0 3.74877e-09 0.0
0 3.74976e-09 0.0
0 3.75076e-09 0.0
0 3.75175e-09 0.0
0 3.75274e-09 0.0
0 3.75373e-09 0.0
0 3.75471e-09 0.0
0 3.7557e-09 0.0
0 3.75668e-09 0.0
0 3.75766e-09 0.0
0 3.75863e-09 0.0
0 3.75946e-09 0.0
0 3.75997e-09 0.0
0 3.76016e-09 0.0
SCALARS Porosity double
LOOKUP_TABLE default
0.16
0.16
0.16
0.16
0.16
0.16
0.16
0.16
0.16
0.16
0.16
0.16
0.16
0.16
0.16
0.16
0.16
0.16
0.16
0.16
0.16
0.16
0.16
0.16
0.16
0.16
0.16
0.16
0.16
0.16
0.16
0.16
SCALARS Cell_Number double
LOOKUP_TABLE default
0
1
2
3
4
5
6
7
8
9
10
11
12
13
14
15
16
17
18
19
20
21
22
23
24
25
26
27
28
29
30
31
VECTORS Permeability double
1 0.695603 0.0
1 0.391187 0.0
1 0.391148 0.0
1 0.391108 0.0
1 0.391069 0.0
1 0.39103 0.0
1 0.390991 0.0
1 0.390951 0.0
1 0.390912 0.0
1 0.390873 0.0
1 0.390833 0.0
1 0.390794 0.0
1 0.390755 0.0
1 0.390715 0.0
1 0.390676 0.0
1 0.390637 0.0
1 0.390597 0.0
1 0.390558 0.0
1 0.390518 0.0
1 0.390479 0.0
1 0.39044 0.0
1 0.3904 0.0
1 0.390361 0.0
1 0.390321 0.0
1 0.390282 0.0
1 0.390242 0.0
1 0.390203 0.0
1 0.389064 0.0
1 0.195698 0.0
1 0.00343052 0.0
1 0.00322847 0.0
1 0.00152373 0.0
VECTORS indp double
0 0.5 0
0 1 0
0 1 0
0 1 0
0 1 0
0 1 0
0 1 0
0 1 0
0 1 0
0 1 0
0 1 0
0 1 0
0 1 0
0 1 0
0 1 0
0 1 0
0 1 0
0 1 0
0 1 0
0 1 0
0 1 0
0 1 0
0 1 0
0 1 0
0 1 0
0 1 0
0 1 0
0 1 0
0 0.5 0
0 0 0
0 0 0
0 0 0
