# vtk DataFile Version 3.0

ASCII
DATASET STRUCTURED_GRID
DIMENSIONS 2 33 1
POINTS 66 DOUBLE
0 0 0.0
0.012 0 0.0
0 0.000375 0.0
0.012 0.000375 0.0
0 0.00075 0.0
0.012 0.00075 0.0
0 0.001125 0.0
0.012 0.001125 0.0
0 0.0015 0.0
0.012 0.0015 0.0
0 0.001875 0.0
0.012 0.001875 0.0
0 0.00225 0.0
0.012 0.00225 0.0
0 0.002625 0.0
0.012 0.002625 0.0
0 0.003 0.0
0.012 0.003 0.0
0 0.003375 0.0
0.012 0.003375 0.0
0 0.00375 0.0
0.012 0.00375 0.0
0 0.004125 0.0
0.012 0.004125 0.0
0 0.0045 0.0
0.012 0.0045 0.0
0 0.004875 0.0
0.012 0.004875 0.0
0 0.00525 0.0
0.012 0.00525 0.0
0 0.005625 0.0
0.012 0.005625 0.0
0 0.006 0.0
0.012 0.006 0.0
0 0.006375 0.0
0.012 0.006375 0.0
0 0.00675 0.0
0.012 0.00675 0.0
0 0.007125 0.0
0.012 0.007125 0.0
0 0.0075 0.0
0.012 0.0075 0.0
0 0.007875 0.0
0.012 0.007875 0.0
0 0.00825 0.0
0.012 0.00825 0.0
0 0.008625 0.0
0.012 0.008625 0.0
0 0.009 0.0
0.012 0.009 0.0
0 0.009375 0.0
0.012 0.009375 0.0
0 0.00975 0.0
0.012 0.00975 0.0
0 0.010125 0.0
0.012 0.010125 0.0
0 0.0105 0.0
0.012 0.0105 0.0
0 0.010875 0.0
0.012 0.010875 0.0
0 0.01125 0.0
0.012 0.01125 0.0
0 0.011625 0.0
0.012 0.011625 0.0
0 0.012 0.0
0.012 0.012 0.0
CELL_DATA 32
SCALARS Fluid_Pressure double
LOOKUP_TABLE default
9.38766e+06
9.38408e+06
9.3805e+06
9.37691e+06
9.37333e+06
9.36975e+06
9.36616e+06
9.36257e+06
9.35898e+06
9.35539e+06
9.3518e+06
9.34821e+06
9.34461e+06
9.34102e+06
9.33742e+06
9.33382e+06
9.33022e+06
9.32662e+06
9.32302e+06
9.31941e+06
9.31581e+06
9.3122e+06
9.30859e+06
9.30498e+06
9.30137e+06
9.29775e+06
9.29414e+06
9.29052e+06
9.28689e+06
8.87822e+06
8.46442e+06
8.00141e+06
SCALARS Fluid_Pressure_Exact double
LOOKUP_TABLE default
1.28958e+07
1.27404e+07
1.2585e+07
1.24296e+07
1.22741e+07
1.21187e+07
1.19633e+07
1.18079e+07
1.16524e+07
1.1497e+07
1.13416e+07
1.11862e+07
1.10308e+07
1.08753e+07
1.07199e+07
1.05645e+07
1.04091e+07
1.02536e+07
1.00982e+07
9.94279e+06
9.78737e+06
9.63194e+06
9.47652e+06
9.3211e+06
9.16567e+06
9.01025e+06
8.85483e+06
8.6994e+06
8.54398e+06
8.38856e+06
8.23313e+06
8.07771e+06
VECTORS FluidFlux double
0 3.73071e-09 0.0
0 3.7318e-09 0.0
0 3.73289e-09 0.0
0 3.73398e-09 0.0
0 3.73508e-09 0.0
0 3.73617e-09 0.0
0 3.73726e-09 0.0
0 3.73835e-09 0.0
0 3.73944e-09 0.0
0 3.74053e-09 0.0
0 3.74162e-09 0.0
0 3.74271e-09 0.0
0 3.7438e-09 0.0
0 3.74488e-09 0.0
0 3.74597e-09 0.0
0 3.74705e-09 0.0
0 3.74813e-09 0.0
0 3.74921e-09 0.0
0 3.75029e-09 0.0
0 3.75137e-09 0.0
0 3.75245e-09 0.0
0 3.75352e-09 0.0
0 3.75459e-09 0.0
0 3.75566e-09 0.0
0 3.75672e-09 0.0
0 3.75779e-09 0.0
0 3.75885e-09 0.0
0 3.75991e-09 0.0
0 3.76097e-09 0.0
0 3.76186e-09 0.0
0 3.76242e-09 0.0
0 3.76261e-09 0.0
SCALARS Porosity double
LOOKUP_TABLE default
0.16
0.16
0.16
0.16
0.16
0.16
0.16
0.16
0.16
0.16
0.16
0.16
0.16
0.16
0.16
0.16
0.16
0.16
0.16
0.16
0.16
0.16
0.16
0.16
0.16
0.16
0.16
0.16
0.16
0.16
0.16
0.16
SCALARS Cell_Number double
LOOKUP_TABLE default
0
1
2
3
4
5
6
7
8
9
10
11
12
13
14
15
16
17
18
19
20
21
22
23
24
25
26
27
28
29
30
31
VECTORS Permeability double
1 0.695608 0.0
1 0.391196 0.0
1 0.391157 0.0
1 0.391118 0.0
1 0.391078 0.0
1 0.391039 0.0
1 0.391 0.0
1 0.390961 0.0
1 0.390921 0.0
1 0.390882 0.0
1 0.390843 0.0
1 0.390803 0.0
1 0.390764 0.0
1 0.390725 0.0
1 0.390685 0.0
1 0.390646 0.0
1 0.390606 0.0
1 0.390567 0.0
1 0.390528 0.0
1 0.390488 0.0
1 0.390449 0.0
1 0.390409 0.0
1 0.39037 0.0
1 0.39033 0.0
1 0.390291 0.0
1 0.390251 0.0
1 0.390212 0.0
1 0.389072 0.0
1 0.195702 0.0
1 0.00343055 0.0
1 0.00322848 0.0
1 0.00152373 0.0
VECTORS indp double
0 0.5 0
0 1 0
0 1 0
0 1 0
0 1 0
0 1 0
0 1 0
0 1 0
0 1 0
0 1 0
0 1 0
0 1 0
0 1 0
0 1 0
0 1 0
0 1 0
0 1 0
0 1 0
0 1 0
0 1 0
0 1 0
0 1 0
0 1 0
0 1 0
0 1 0
0 1 0
0 1 0
0 1 0
0 0.5 0
0 0 0
0 0 0
0 0 0
