# vtk DataFile Version 3.0

ASCII
DATASET STRUCTURED_GRID
DIMENSIONS 2 33 1
POINTS 66 DOUBLE
0 0 0.0
0.012 0 0.0
0 0.000375 0.0
0.012 0.000375 0.0
0 0.00075 0.0
0.012 0.00075 0.0
0 0.001125 0.0
0.012 0.001125 0.0
0 0.0015 0.0
0.012 0.0015 0.0
0 0.001875 0.0
0.012 0.001875 0.0
0 0.00225 0.0
0.012 0.00225 0.0
0 0.002625 0.0
0.012 0.002625 0.0
0 0.003 0.0
0.012 0.003 0.0
0 0.003375 0.0
0.012 0.003375 0.0
0 0.00375 0.0
0.012 0.00375 0.0
0 0.004125 0.0
0.012 0.004125 0.0
0 0.0045 0.0
0.012 0.0045 0.0
0 0.004875 0.0
0.012 0.004875 0.0
0 0.00525 0.0
0.012 0.00525 0.0
0 0.005625 0.0
0.012 0.005625 0.0
0 0.006 0.0
0.012 0.006 0.0
0 0.006375 0.0
0.012 0.006375 0.0
0 0.00675 0.0
0.012 0.00675 0.0
0 0.007125 0.0
0.012 0.007125 0.0
0 0.0075 0.0
0.012 0.0075 0.0
0 0.007875 0.0
0.012 0.007875 0.0
0 0.00825 0.0
0.012 0.00825 0.0
0 0.008625 0.0
0.012 0.008625 0.0
0 0.009 0.0
0.012 0.009 0.0
0 0.009375 0.0
0.012 0.009375 0.0
0 0.00975 0.0
0.012 0.00975 0.0
0 0.010125 0.0
0.012 0.010125 0.0
0 0.0105 0.0
0.012 0.0105 0.0
0 0.010875 0.0
0.012 0.010875 0.0
0 0.01125 0.0
0.012 0.01125 0.0
0 0.011625 0.0
0.012 0.011625 0.0
0 0.012 0.0
0.012 0.012 0.0
CELL_DATA 32
SCALARS Fluid_Pressure double
LOOKUP_TABLE default
9.38811e+06
9.38453e+06
9.38095e+06
9.37737e+06
9.37378e+06
9.3702e+06
9.36661e+06
9.36302e+06
9.35943e+06
9.35584e+06
9.35225e+06
9.34866e+06
9.34506e+06
9.34147e+06
9.33787e+06
9.33427e+06
9.33067e+06
9.32706e+06
9.32346e+06
9.31986e+06
9.31625e+06
9.31264e+06
9.30903e+06
9.30542e+06
9.30181e+06
9.29819e+06
9.29458e+06
9.29096e+06
9.28732e+06
8.87852e+06
8.46458e+06
8.00141e+06
SCALARS Fluid_Pressure_Exact double
LOOKUP_TABLE default
1.28958e+07
1.27404e+07
1.2585e+07
1.24296e+07
1.22741e+07
1.21187e+07
1.19633e+07
1.18079e+07
1.16524e+07
1.1497e+07
1.13416e+07
1.11862e+07
1.10308e+07
1.08753e+07
1.07199e+07
1.05645e+07
1.04091e+07
1.02536e+07
1.00982e+07
9.94279e+06
9.78737e+06
9.63194e+06
9.47652e+06
9.3211e+06
9.16567e+06
9.01025e+06
8.85483e+06
8.6994e+06
8.54398e+06
8.38856e+06
8.23313e+06
8.07771e+06
VECTORS FluidFlux double
0 3.73073e-09 0.0
0 3.73186e-09 0.0
0 3.733e-09 0.0
0 3.73414e-09 0.0
0 3.73528e-09 0.0
0 3.73641e-09 0.0
0 3.73755e-09 0.0
0 3.73868e-09 0.0
0 3.73982e-09 0.0
0 3.74095e-09 0.0
0 3.74208e-09 0.0
0 3.74322e-09 0.0
0 3.74435e-09 0.0
0 3.74548e-09 0.0
0 3.74661e-09 0.0
0 3.74773e-09 0.0
0 3.74886e-09 0.0
0 3.74998e-09 0.0
0 3.7511e-09 0.0
0 3.75222e-09 0.0
0 3.75334e-09 0.0
0 3.75446e-09 0.0
0 3.75557e-09 0.0
0 3.75668e-09 0.0
0 3.75779e-09 0.0
0 3.7589e-09 0.0
0 3.76e-09 0.0
0 3.7611e-09 0.0
0 3.7622e-09 0.0
0 3.76313e-09 0.0
0 3.76371e-09 0.0
0 3.76392e-09 0.0
SCALARS Porosity double
LOOKUP_TABLE default
0.16
0.16
0.16
0.16
0.16
0.16
0.16
0.16
0.16
0.16
0.16
0.16
0.16
0.16
0.16
0.16
0.16
0.16
0.16
0.16
0.16
0.16
0.16
0.16
0.16
0.16
0.16
0.16
0.16
0.16
0.16
0.16
SCALARS Cell_Number double
LOOKUP_TABLE default
0
1
2
3
4
5
6
7
8
9
10
11
12
13
14
15
16
17
18
19
20
21
22
23
24
25
26
27
28
29
30
31
VECTORS Permeability double
1 0.69561 0.0
1 0.391201 0.0
1 0.391162 0.0
1 0.391123 0.0
1 0.391083 0.0
1 0.391044 0.0
1 0.391005 0.0
1 0.390966 0.0
1 0.390926 0.0
1 0.390887 0.0
1 0.390848 0.0
1 0.390808 0.0
1 0.390769 0.0
1 0.39073 0.0
1 0.39069 0.0
1 0.390651 0.0
1 0.390611 0.0
1 0.390572 0.0
1 0.390533 0.0
1 0.390493 0.0
1 0.390454 0.0
1 0.390414 0.0
1 0.390375 0.0
1 0.390335 0.0
1 0.390296 0.0
1 0.390256 0.0
1 0.390217 0.0
1 0.389077 0.0
1 0.195704 0.0
1 0.00343057 0.0
1 0.00322848 0.0
1 0.00152373 0.0
VECTORS indp double
0 0.5 0
0 1 0
0 1 0
0 1 0
0 1 0
0 1 0
0 1 0
0 1 0
0 1 0
0 1 0
0 1 0
0 1 0
0 1 0
0 1 0
0 1 0
0 1 0
0 1 0
0 1 0
0 1 0
0 1 0
0 1 0
0 1 0
0 1 0
0 1 0
0 1 0
0 1 0
0 1 0
0 1 0
0 0.5 0
0 0 0
0 0 0
0 0 0
