# vtk DataFile Version 3.0

ASCII
DATASET STRUCTURED_GRID
DIMENSIONS 2 33 1
POINTS 66 DOUBLE
0 0 0.0
0.012 0 0.0
0 0.000375 0.0
0.012 0.000375 0.0
0 0.00075 0.0
0.012 0.00075 0.0
0 0.001125 0.0
0.012 0.001125 0.0
0 0.0015 0.0
0.012 0.0015 0.0
0 0.001875 0.0
0.012 0.001875 0.0
0 0.00225 0.0
0.012 0.00225 0.0
0 0.002625 0.0
0.012 0.002625 0.0
0 0.003 0.0
0.012 0.003 0.0
0 0.003375 0.0
0.012 0.003375 0.0
0 0.00375 0.0
0.012 0.00375 0.0
0 0.004125 0.0
0.012 0.004125 0.0
0 0.0045 0.0
0.012 0.0045 0.0
0 0.004875 0.0
0.012 0.004875 0.0
0 0.00525 0.0
0.012 0.00525 0.0
0 0.005625 0.0
0.012 0.005625 0.0
0 0.006 0.0
0.012 0.006 0.0
0 0.006375 0.0
0.012 0.006375 0.0
0 0.00675 0.0
0.012 0.00675 0.0
0 0.007125 0.0
0.012 0.007125 0.0
0 0.0075 0.0
0.012 0.0075 0.0
0 0.007875 0.0
0.012 0.007875 0.0
0 0.00825 0.0
0.012 0.00825 0.0
0 0.008625 0.0
0.012 0.008625 0.0
0 0.009 0.0
0.012 0.009 0.0
0 0.009375 0.0
0.012 0.009375 0.0
0 0.00975 0.0
0.012 0.00975 0.0
0 0.010125 0.0
0.012 0.010125 0.0
0 0.0105 0.0
0.012 0.0105 0.0
0 0.010875 0.0
0.012 0.010875 0.0
0 0.01125 0.0
0.012 0.01125 0.0
0 0.011625 0.0
0.012 0.011625 0.0
0 0.012 0.0
0.012 0.012 0.0
CELL_DATA 32
SCALARS Fluid_Pressure double
LOOKUP_TABLE default
9.38722e+06
9.38364e+06
9.38006e+06
9.37648e+06
9.3729e+06
9.36931e+06
9.36573e+06
9.36214e+06
9.35855e+06
9.35496e+06
9.35137e+06
9.34778e+06
9.34418e+06
9.34059e+06
9.33699e+06
9.33339e+06
9.32979e+06
9.32619e+06
9.32259e+06
9.31898e+06
9.31538e+06
9.31177e+06
9.30816e+06
9.30456e+06
9.30094e+06
9.29733e+06
9.29372e+06
9.2901e+06
9.28647e+06
8.87793e+06
8.46426e+06
8.00141e+06
SCALARS Fluid_Pressure_Exact double
LOOKUP_TABLE default
1.28958e+07
1.27404e+07
1.2585e+07
1.24296e+07
1.22741e+07
1.21187e+07
1.19633e+07
1.18079e+07
1.16524e+07
1.1497e+07
1.13416e+07
1.11862e+07
1.10308e+07
1.08753e+07
1.07199e+07
1.05645e+07
1.04091e+07
1.02536e+07
1.00982e+07
9.94279e+06
9.78737e+06
9.63194e+06
9.47652e+06
9.3211e+06
9.16567e+06
9.01025e+06
8.85483e+06
8.6994e+06
8.54398e+06
8.38856e+06
8.23313e+06
8.07771e+06
VECTORS FluidFlux double
0 3.73068e-09 0.0
0 3.73174e-09 0.0
0 3.73279e-09 0.0
0 3.73384e-09 0.0
0 3.73489e-09 0.0
0 3.73594e-09 0.0
0 3.73699e-09 0.0
0 3.73804e-09 0.0
0 3.73909e-09 0.0
0 3.74013e-09 0.0
0 3.74118e-09 0.0
0 3.74223e-09 0.0
0 3.74327e-09 0.0
0 3.74432e-09 0.0
0 3.74536e-09 0.0
0 3.7464e-09 0.0
0 3.74744e-09 0.0
0 3.74848e-09 0.0
0 3.74952e-09 0.0
0 3.75055e-09 0.0
0 3.75158e-09 0.0
0 3.75262e-09 0.0
0 3.75365e-09 0.0
0 3.75467e-09 0.0
0 3.7557e-09 0.0
0 3.75672e-09 0.0
0 3.75774e-09 0.0
0 3.75876e-09 0.0
0 3.75978e-09 0.0
0 3.76063e-09 0.0
0 3.76117e-09 0.0
0 3.76136e-09 0.0
SCALARS Porosity double
LOOKUP_TABLE default
0.16
0.16
0.16
0.16
0.16
0.16
0.16
0.16
0.16
0.16
0.16
0.16
0.16
0.16
0.16
0.16
0.16
0.16
0.16
0.16
0.16
0.16
0.16
0.16
0.16
0.16
0.16
0.16
0.16
0.16
0.16
0.16
SCALARS Cell_Number double
LOOKUP_TABLE default
0
1
2
3
4
5
6
7
8
9
10
11
12
13
14
15
16
17
18
19
20
21
22
23
24
25
26
27
28
29
30
31
VECTORS Permeability double
1 0.695606 0.0
1 0.391191 0.0
1 0.391152 0.0
1 0.391113 0.0
1 0.391074 0.0
1 0.391034 0.0
1 0.390995 0.0
1 0.390956 0.0
1 0.390917 0.0
1 0.390877 0.0
1 0.390838 0.0
1 0.390799 0.0
1 0.390759 0.0
1 0.39072 0.0
1 0.390681 0.0
1 0.390641 0.0
1 0.390602 0.0
1 0.390562 0.0
1 0.390523 0.0
1 0.390484 0.0
1 0.390444 0.0
1 0.390405 0.0
1 0.390365 0.0
1 0.390326 0.0
1 0.390286 0.0
1 0.390247 0.0
1 0.390207 0.0
1 0.389068 0.0
1 0.1957 0.0
1 0.00343054 0.0
1 0.00322847 0.0
1 0.00152373 0.0
VECTORS indp double
0 0.5 0
0 1 0
0 1 0
0 1 0
0 1 0
0 1 0
0 1 0
0 1 0
0 1 0
0 1 0
0 1 0
0 1 0
0 1 0
0 1 0
0 1 0
0 1 0
0 1 0
0 1 0
0 1 0
0 1 0
0 1 0
0 1 0
0 1 0
0 1 0
0 1 0
0 1 0
0 1 0
0 1 0
0 0.5 0
0 0 0
0 0 0
0 0 0
