# vtk DataFile Version 3.0

ASCII
DATASET STRUCTURED_GRID
DIMENSIONS 2 33 1
POINTS 66 DOUBLE
0 0 0.0
0.012 0 0.0
0 0.000375 0.0
0.012 0.000375 0.0
0 0.00075 0.0
0.012 0.00075 0.0
0 0.001125 0.0
0.012 0.001125 0.0
0 0.0015 0.0
0.012 0.0015 0.0
0 0.001875 0.0
0.012 0.001875 0.0
0 0.00225 0.0
0.012 0.00225 0.0
0 0.002625 0.0
0.012 0.002625 0.0
0 0.003 0.0
0.012 0.003 0.0
0 0.003375 0.0
0.012 0.003375 0.0
0 0.00375 0.0
0.012 0.00375 0.0
0 0.004125 0.0
0.012 0.004125 0.0
0 0.0045 0.0
0.012 0.0045 0.0
0 0.004875 0.0
0.012 0.004875 0.0
0 0.00525 0.0
0.012 0.00525 0.0
0 0.005625 0.0
0.012 0.005625 0.0
0 0.006 0.0
0.012 0.006 0.0
0 0.006375 0.0
0.012 0.006375 0.0
0 0.00675 0.0
0.012 0.00675 0.0
0 0.007125 0.0
0.012 0.007125 0.0
0 0.0075 0.0
0.012 0.0075 0.0
0 0.007875 0.0
0.012 0.007875 0.0
0 0.00825 0.0
0.012 0.00825 0.0
0 0.008625 0.0
0.012 0.008625 0.0
0 0.009 0.0
0.012 0.009 0.0
0 0.009375 0.0
0.012 0.009375 0.0
0 0.00975 0.0
0.012 0.00975 0.0
0 0.010125 0.0
0.012 0.010125 0.0
0 0.0105 0.0
0.012 0.0105 0.0
0 0.010875 0.0
0.012 0.010875 0.0
0 0.01125 0.0
0.012 0.01125 0.0
0 0.011625 0.0
0.012 0.011625 0.0
0 0.012 0.0
0.012 0.012 0.0
CELL_DATA 32
SCALARS Fluid_Pressure double
LOOKUP_TABLE default
9.38744e+06
9.38386e+06
9.38028e+06
9.3767e+06
9.37311e+06
9.36953e+06
9.36594e+06
9.36235e+06
9.35876e+06
9.35517e+06
9.35158e+06
9.34799e+06
9.3444e+06
9.3408e+06
9.3372e+06
9.3336e+06
9.33e+06
9.3264e+06
9.3228e+06
9.3192e+06
9.31559e+06
9.31198e+06
9.30837e+06
9.30477e+06
9.30115e+06
9.29754e+06
9.29393e+06
9.29031e+06
9.28668e+06
8.87807e+06
8.46434e+06
8.00141e+06
SCALARS Fluid_Pressure_Exact double
LOOKUP_TABLE default
1.28958e+07
1.27404e+07
1.2585e+07
1.24296e+07
1.22741e+07
1.21187e+07
1.19633e+07
1.18079e+07
1.16524e+07
1.1497e+07
1.13416e+07
1.11862e+07
1.10308e+07
1.08753e+07
1.07199e+07
1.05645e+07
1.04091e+07
1.02536e+07
1.00982e+07
9.94279e+06
9.78737e+06
9.63194e+06
9.47652e+06
9.3211e+06
9.16567e+06
9.01025e+06
8.85483e+06
8.6994e+06
8.54398e+06
8.38856e+06
8.23313e+06
8.07771e+06
VECTORS FluidFlux double
0 3.73069e-09 0.0
0 3.73177e-09 0.0
0 3.73284e-09 0.0
0 3.73391e-09 0.0
0 3.73498e-09 0.0
0 3.73605e-09 0.0
0 3.73712e-09 0.0
0 3.73819e-09 0.0
0 3.73926e-09 0.0
0 3.74033e-09 0.0
0 3.7414e-09 0.0
0 3.74247e-09 0.0
0 3.74353e-09 0.0
0 3.7446e-09 0.0
0 3.74566e-09 0.0
0 3.74672e-09 0.0
0 3.74778e-09 0.0
0 3.74884e-09 0.0
0 3.7499e-09 0.0
0 3.75096e-09 0.0
0 3.75201e-09 0.0
0 3.75306e-09 0.0
0 3.75411e-09 0.0
0 3.75516e-09 0.0
0 3.75621e-09 0.0
0 3.75725e-09 0.0
0 3.75829e-09 0.0
0 3.75933e-09 0.0
0 3.76037e-09 0.0
0 3.76124e-09 0.0
0 3.76179e-09 0.0
0 3.76198e-09 0.0
SCALARS Porosity double
LOOKUP_TABLE default
0.16
0.16
0.16
0.16
0.16
0.16
0.16
0.16
0.16
0.16
0.16
0.16
0.16
0.16
0.16
0.16
0.16
0.16
0.16
0.16
0.16
0.16
0.16
0.16
0.16
0.16
0.16
0.16
0.16
0.16
0.16
0.16
SCALARS Cell_Number double
LOOKUP_TABLE default
0
1
2
3
4
5
6
7
8
9
10
11
12
13
14
15
16
17
18
19
20
21
22
23
24
25
26
27
28
29
30
31
VECTORS Permeability double
1 0.695607 0.0
1 0.391194 0.0
1 0.391155 0.0
1 0.391115 0.0
1 0.391076 0.0
1 0.391037 0.0
1 0.390998 0.0
1 0.390958 0.0
1 0.390919 0.0
1 0.39088 0.0
1 0.39084 0.0
1 0.390801 0.0
1 0.390762 0.0
1 0.390722 0.0
1 0.390683 0.0
1 0.390643 0.0
1 0.390604 0.0
1 0.390565 0.0
1 0.390525 0.0
1 0.390486 0.0
1 0.390446 0.0
1 0.390407 0.0
1 0.390368 0.0
1 0.390328 0.0
1 0.390289 0.0
1 0.390249 0.0
1 0.39021 0.0
1 0.38907 0.0
1 0.195701 0.0
1 0.00343055 0.0
1 0.00322848 0.0
1 0.00152373 0.0
VECTORS indp double
0 0.5 0
0 1 0
0 1 0
0 1 0
0 1 0
0 1 0
0 1 0
0 1 0
0 1 0
0 1 0
0 1 0
0 1 0
0 1 0
0 1 0
0 1 0
0 1 0
0 1 0
0 1 0
0 1 0
0 1 0
0 1 0
0 1 0
0 1 0
0 1 0
0 1 0
0 1 0
0 1 0
0 1 0
0 0.5 0
0 0 0
0 0 0
0 0 0
