# vtk DataFile Version 3.0

ASCII
DATASET STRUCTURED_GRID
DIMENSIONS 2 33 1
POINTS 66 DOUBLE
0 0 0.0
0.012 0 0.0
0 0.000375 0.0
0.012 0.000375 0.0
0 0.00075 0.0
0.012 0.00075 0.0
0 0.001125 0.0
0.012 0.001125 0.0
0 0.0015 0.0
0.012 0.0015 0.0
0 0.001875 0.0
0.012 0.001875 0.0
0 0.00225 0.0
0.012 0.00225 0.0
0 0.002625 0.0
0.012 0.002625 0.0
0 0.003 0.0
0.012 0.003 0.0
0 0.003375 0.0
0.012 0.003375 0.0
0 0.00375 0.0
0.012 0.00375 0.0
0 0.004125 0.0
0.012 0.004125 0.0
0 0.0045 0.0
0.012 0.0045 0.0
0 0.004875 0.0
0.012 0.004875 0.0
0 0.00525 0.0
0.012 0.00525 0.0
0 0.005625 0.0
0.012 0.005625 0.0
0 0.006 0.0
0.012 0.006 0.0
0 0.006375 0.0
0.012 0.006375 0.0
0 0.00675 0.0
0.012 0.00675 0.0
0 0.007125 0.0
0.012 0.007125 0.0
0 0.0075 0.0
0.012 0.0075 0.0
0 0.007875 0.0
0.012 0.007875 0.0
0 0.00825 0.0
0.012 0.00825 0.0
0 0.008625 0.0
0.012 0.008625 0.0
0 0.009 0.0
0.012 0.009 0.0
0 0.009375 0.0
0.012 0.009375 0.0
0 0.00975 0.0
0.012 0.00975 0.0
0 0.010125 0.0
0.012 0.010125 0.0
0 0.0105 0.0
0.012 0.0105 0.0
0 0.010875 0.0
0.012 0.010875 0.0
0 0.01125 0.0
0.012 0.01125 0.0
0 0.011625 0.0
0.012 0.011625 0.0
0 0.012 0.0
0.012 0.012 0.0
CELL_DATA 32
SCALARS Fluid_Pressure double
LOOKUP_TABLE default
9.38565e+06
9.38207e+06
9.37849e+06
9.37491e+06
9.37132e+06
9.36774e+06
9.36415e+06
9.36057e+06
9.35698e+06
9.35339e+06
9.3498e+06
9.34621e+06
9.34262e+06
9.33902e+06
9.33543e+06
9.33183e+06
9.32823e+06
9.32463e+06
9.32103e+06
9.31743e+06
9.31383e+06
9.31023e+06
9.30662e+06
9.30302e+06
9.29941e+06
9.2958e+06
9.29219e+06
9.28858e+06
9.28495e+06
8.87687e+06
8.4637e+06
8.00141e+06
SCALARS Fluid_Pressure_Exact double
LOOKUP_TABLE default
1.28958e+07
1.27404e+07
1.2585e+07
1.24296e+07
1.22741e+07
1.21187e+07
1.19633e+07
1.18079e+07
1.16524e+07
1.1497e+07
1.13416e+07
1.11862e+07
1.10308e+07
1.08753e+07
1.07199e+07
1.05645e+07
1.04091e+07
1.02536e+07
1.00982e+07
9.94279e+06
9.78737e+06
9.63194e+06
9.47652e+06
9.3211e+06
9.16567e+06
9.01025e+06
8.85483e+06
8.6994e+06
8.54398e+06
8.38856e+06
8.23313e+06
8.07771e+06
VECTORS FluidFlux double
0 3.73061e-09 0.0
0 3.73151e-09 0.0
0 3.7324e-09 0.0
0 3.7333e-09 0.0
0 3.7342e-09 0.0
0 3.7351e-09 0.0
0 3.73599e-09 0.0
0 3.73689e-09 0.0
0 3.73778e-09 0.0
0 3.73868e-09 0.0
0 3.73957e-09 0.0
0 3.74047e-09 0.0
0 3.74136e-09 0.0
0 3.74225e-09 0.0
0 3.74314e-09 0.0
0 3.74403e-09 0.0
0 3.74492e-09 0.0
0 3.74581e-09 0.0
0 3.74669e-09 0.0
0 3.74758e-09 0.0
0 3.74846e-09 0.0
0 3.74934e-09 0.0
0 3.75022e-09 0.0
0 3.7511e-09 0.0
0 3.75198e-09 0.0
0 3.75285e-09 0.0
0 3.75372e-09 0.0
0 3.75459e-09 0.0
0 3.75546e-09 0.0
0 3.75619e-09 0.0
0 3.75665e-09 0.0
0 3.75681e-09 0.0
SCALARS Porosity double
LOOKUP_TABLE default
0.16
0.16
0.16
0.16
0.16
0.16
0.16
0.16
0.16
0.16
0.16
0.16
0.16
0.16
0.16
0.16
0.16
0.16
0.16
0.16
0.16
0.16
0.16
0.16
0.16
0.16
0.16
0.16
0.16
0.16
0.16
0.16
SCALARS Cell_Number double
LOOKUP_TABLE default
0
1
2
3
4
5
6
7
8
9
10
11
12
13
14
15
16
17
18
19
20
21
22
23
24
25
26
27
28
29
30
31
VECTORS Permeability double
1 0.695597 0.0
1 0.391174 0.0
1 0.391135 0.0
1 0.391096 0.0
1 0.391056 0.0
1 0.391017 0.0
1 0.390978 0.0
1 0.390939 0.0
1 0.390899 0.0
1 0.39086 0.0
1 0.390821 0.0
1 0.390781 0.0
1 0.390742 0.0
1 0.390703 0.0
1 0.390663 0.0
1 0.390624 0.0
1 0.390585 0.0
1 0.390545 0.0
1 0.390506 0.0
1 0.390467 0.0
1 0.390427 0.0
1 0.390388 0.0
1 0.390348 0.0
1 0.390309 0.0
1 0.39027 0.0
1 0.39023 0.0
1 0.390191 0.0
1 0.389053 0.0
1 0.195693 0.0
1 0.00343049 0.0
1 0.00322846 0.0
1 0.00152373 0.0
VECTORS indp double
0 0.5 0
0 1 0
0 1 0
0 1 0
0 1 0
0 1 0
0 1 0
0 1 0
0 1 0
0 1 0
0 1 0
0 1 0
0 1 0
0 1 0
0 1 0
0 1 0
0 1 0
0 1 0
0 1 0
0 1 0
0 1 0
0 1 0
0 1 0
0 1 0
0 1 0
0 1 0
0 1 0
0 1 0
0 0.5 0
0 0 0
0 0 0
0 0 0
