# vtk DataFile Version 3.0

ASCII
DATASET STRUCTURED_GRID
DIMENSIONS 2 33 1
POINTS 66 DOUBLE
0 0 0.0
0.012 0 0.0
0 0.000375 0.0
0.012 0.000375 0.0
0 0.00075 0.0
0.012 0.00075 0.0
0 0.001125 0.0
0.012 0.001125 0.0
0 0.0015 0.0
0.012 0.0015 0.0
0 0.001875 0.0
0.012 0.001875 0.0
0 0.00225 0.0
0.012 0.00225 0.0
0 0.002625 0.0
0.012 0.002625 0.0
0 0.003 0.0
0.012 0.003 0.0
0 0.003375 0.0
0.012 0.003375 0.0
0 0.00375 0.0
0.012 0.00375 0.0
0 0.004125 0.0
0.012 0.004125 0.0
0 0.0045 0.0
0.012 0.0045 0.0
0 0.004875 0.0
0.012 0.004875 0.0
0 0.00525 0.0
0.012 0.00525 0.0
0 0.005625 0.0
0.012 0.005625 0.0
0 0.006 0.0
0.012 0.006 0.0
0 0.006375 0.0
0.012 0.006375 0.0
0 0.00675 0.0
0.012 0.00675 0.0
0 0.007125 0.0
0.012 0.007125 0.0
0 0.0075 0.0
0.012 0.0075 0.0
0 0.007875 0.0
0.012 0.007875 0.0
0 0.00825 0.0
0.012 0.00825 0.0
0 0.008625 0.0
0.012 0.008625 0.0
0 0.009 0.0
0.012 0.009 0.0
0 0.009375 0.0
0.012 0.009375 0.0
0 0.00975 0.0
0.012 0.00975 0.0
0 0.010125 0.0
0.012 0.010125 0.0
0 0.0105 0.0
0.012 0.0105 0.0
0 0.010875 0.0
0.012 0.010875 0.0
0 0.01125 0.0
0.012 0.01125 0.0
0 0.011625 0.0
0.012 0.011625 0.0
0 0.012 0.0
0.012 0.012 0.0
CELL_DATA 32
SCALARS Fluid_Pressure double
LOOKUP_TABLE default
9.38512e+06
9.38154e+06
9.37796e+06
9.37438e+06
9.37079e+06
9.36721e+06
9.36363e+06
9.36004e+06
9.35645e+06
9.35286e+06
9.34927e+06
9.34568e+06
9.34209e+06
9.3385e+06
9.3349e+06
9.33131e+06
9.32771e+06
9.32411e+06
9.32051e+06
9.31691e+06
9.31331e+06
9.30971e+06
9.3061e+06
9.3025e+06
9.29889e+06
9.29529e+06
9.29168e+06
9.28807e+06
9.28444e+06
8.87652e+06
8.46351e+06
8.00141e+06
SCALARS Fluid_Pressure_Exact double
LOOKUP_TABLE default
1.28958e+07
1.27404e+07
1.2585e+07
1.24296e+07
1.22741e+07
1.21187e+07
1.19633e+07
1.18079e+07
1.16524e+07
1.1497e+07
1.13416e+07
1.11862e+07
1.10308e+07
1.08753e+07
1.07199e+07
1.05645e+07
1.04091e+07
1.02536e+07
1.00982e+07
9.94279e+06
9.78737e+06
9.63194e+06
9.47652e+06
9.3211e+06
9.16567e+06
9.01025e+06
8.85483e+06
8.6994e+06
8.54398e+06
8.38856e+06
8.23313e+06
8.07771e+06
VECTORS FluidFlux double
0 3.73058e-09 0.0
0 3.73143e-09 0.0
0 3.73227e-09 0.0
0 3.73312e-09 0.0
0 3.73397e-09 0.0
0 3.73481e-09 0.0
0 3.73566e-09 0.0
0 3.7365e-09 0.0
0 3.73735e-09 0.0
0 3.73819e-09 0.0
0 3.73903e-09 0.0
0 3.73988e-09 0.0
0 3.74072e-09 0.0
0 3.74156e-09 0.0
0 3.7424e-09 0.0
0 3.74324e-09 0.0
0 3.74407e-09 0.0
0 3.74491e-09 0.0
0 3.74575e-09 0.0
0 3.74658e-09 0.0
0 3.74741e-09 0.0
0 3.74824e-09 0.0
0 3.74907e-09 0.0
0 3.7499e-09 0.0
0 3.75072e-09 0.0
0 3.75155e-09 0.0
0 3.75237e-09 0.0
0 3.75319e-09 0.0
0 3.75401e-09 0.0
0 3.7547e-09 0.0
0 3.75513e-09 0.0
0 3.75528e-09 0.0
SCALARS Porosity double
LOOKUP_TABLE default
0.16
0.16
0.16
0.16
0.16
0.16
0.16
0.16
0.16
0.16
0.16
0.16
0.16
0.16
0.16
0.16
0.16
0.16
0.16
0.16
0.16
0.16
0.16
0.16
0.16
0.16
0.16
0.16
0.16
0.16
0.16
0.16
SCALARS Cell_Number double
LOOKUP_TABLE default
0
1
2
3
4
5
6
7
8
9
10
11
12
13
14
15
16
17
18
19
20
21
22
23
24
25
26
27
28
29
30
31
VECTORS Permeability double
1 0.695594 0.0
1 0.391168 0.0
1 0.391129 0.0
1 0.39109 0.0
1 0.391051 0.0
1 0.391011 0.0
1 0.390972 0.0
1 0.390933 0.0
1 0.390894 0.0
1 0.390854 0.0
1 0.390815 0.0
1 0.390776 0.0
1 0.390736 0.0
1 0.390697 0.0
1 0.390658 0.0
1 0.390618 0.0
1 0.390579 0.0
1 0.39054 0.0
1 0.3905 0.0
1 0.390461 0.0
1 0.390422 0.0
1 0.390382 0.0
1 0.390343 0.0
1 0.390303 0.0
1 0.390264 0.0
1 0.390225 0.0
1 0.390185 0.0
1 0.389048 0.0
1 0.195691 0.0
1 0.00343047 0.0
1 0.00322846 0.0
1 0.00152373 0.0
VECTORS indp double
0 0.5 0
0 1 0
0 1 0
0 1 0
0 1 0
0 1 0
0 1 0
0 1 0
0 1 0
0 1 0
0 1 0
0 1 0
0 1 0
0 1 0
0 1 0
0 1 0
0 1 0
0 1 0
0 1 0
0 1 0
0 1 0
0 1 0
0 1 0
0 1 0
0 1 0
0 1 0
0 1 0
0 1 0
0 0.5 0
0 0 0
0 0 0
0 0 0
