# vtk DataFile Version 3.0

ASCII
DATASET STRUCTURED_GRID
DIMENSIONS 2 33 1
POINTS 66 DOUBLE
0 0 0.0
0.012 0 0.0
0 0.000375 0.0
0.012 0.000375 0.0
0 0.00075 0.0
0.012 0.00075 0.0
0 0.001125 0.0
0.012 0.001125 0.0
0 0.0015 0.0
0.012 0.0015 0.0
0 0.001875 0.0
0.012 0.001875 0.0
0 0.00225 0.0
0.012 0.00225 0.0
0 0.002625 0.0
0.012 0.002625 0.0
0 0.003 0.0
0.012 0.003 0.0
0 0.003375 0.0
0.012 0.003375 0.0
0 0.00375 0.0
0.012 0.00375 0.0
0 0.004125 0.0
0.012 0.004125 0.0
0 0.0045 0.0
0.012 0.0045 0.0
0 0.004875 0.0
0.012 0.004875 0.0
0 0.00525 0.0
0.012 0.00525 0.0
0 0.005625 0.0
0.012 0.005625 0.0
0 0.006 0.0
0.012 0.006 0.0
0 0.006375 0.0
0.012 0.006375 0.0
0 0.00675 0.0
0.012 0.00675 0.0
0 0.007125 0.0
0.012 0.007125 0.0
0 0.0075 0.0
0.012 0.0075 0.0
0 0.007875 0.0
0.012 0.007875 0.0
0 0.00825 0.0
0.012 0.00825 0.0
0 0.008625 0.0
0.012 0.008625 0.0
0 0.009 0.0
0.012 0.009 0.0
0 0.009375 0.0
0.012 0.009375 0.0
0 0.00975 0.0
0.012 0.00975 0.0
0 0.010125 0.0
0.012 0.010125 0.0
0 0.0105 0.0
0.012 0.0105 0.0
0 0.010875 0.0
0.012 0.010875 0.0
0 0.01125 0.0
0.012 0.01125 0.0
0 0.011625 0.0
0.012 0.011625 0.0
0 0.012 0.0
0.012 0.012 0.0
CELL_DATA 32
SCALARS Fluid_Pressure double
LOOKUP_TABLE default
9.24612e+06
9.24225e+06
9.2381e+06
8.90419e+06
8.65782e+06
8.47496e+06
8.33962e+06
8.24024e+06
8.16805e+06
8.11622e+06
8.07948e+06
8.05377e+06
8.03599e+06
8.02385e+06
8.01565e+06
8.01017e+06
8.00656e+06
8.00419e+06
8.00266e+06
8.00167e+06
8.00104e+06
8.00065e+06
8.0004e+06
8.00024e+06
8.00015e+06
8.00009e+06
8.00005e+06
8.00003e+06
8.00002e+06
8.00001e+06
8.00001e+06
8e+06
SCALARS Fluid_Pressure_Exact double
LOOKUP_TABLE default
1.28958e+07
1.27404e+07
1.2585e+07
1.24296e+07
1.22741e+07
1.21187e+07
1.19633e+07
1.18079e+07
1.16524e+07
1.1497e+07
1.13416e+07
1.11862e+07
1.10308e+07
1.08753e+07
1.07199e+07
1.05645e+07
1.04091e+07
1.02536e+07
1.00982e+07
9.94279e+06
9.78737e+06
9.63194e+06
9.47652e+06
9.3211e+06
9.16567e+06
9.01025e+06
8.85483e+06
8.6994e+06
8.54398e+06
8.38856e+06
8.23313e+06
8.07771e+06
VECTORS FluidFlux double
0 3.87095e-09 0.0
0 4.15417e-09 0.0
0 3.68969e-09 0.0
0 2.67188e-09 0.0
0 1.9658e-09 0.0
0 1.45152e-09 0.0
0 1.06758e-09 0.0
0 7.78745e-10 0.0
0 5.62058e-10 0.0
0 4.00911e-10 0.0
0 2.82486e-10 0.0
0 1.96612e-10 0.0
0 1.35201e-10 0.0
0 9.18885e-11 0.0
0 6.17508e-11 0.0
0 4.10511e-11 0.0
0 2.70091e-11 0.0
0 1.7595e-11 0.0
0 1.13534e-11 0.0
0 7.25865e-12 0.0
0 4.59885e-12 0.0
0 2.88727e-12 0.0
0 1.79556e-12 0.0
0 1.10503e-12 0.0
0 6.71708e-13 0.0
0 4.01882e-13 0.0
0 2.35207e-13 0.0
0 1.33257e-13 0.0
0 7.18844e-14 0.0
0 3.62139e-14 0.0
0 1.74384e-14 0.0
0 1.14575e-14 0.0
SCALARS Porosity double
LOOKUP_TABLE default
0.16
0.16
0.16
0.16
0.16
0.16
0.16
0.16
0.16
0.16
0.16
0.16
0.16
0.16
0.16
0.16
0.16
0.16
0.16
0.16
0.16
0.16
0.16
0.16
0.16
0.16
0.16
0.16
0.16
0.16
0.16
0.16
SCALARS Cell_Number double
LOOKUP_TABLE default
0
1
2
3
4
5
6
7
8
9
10
11
12
13
14
15
16
17
18
19
20
21
22
23
24
25
26
27
28
29
30
31
VECTORS Permeability double
1 0.694831 0.0
1 0.388744 0.0
1 0.195644 0.0
1 0.0034518 0.0
1 0.00343378 0.0
1 0.00342051 0.0
1 0.00341079 0.0
1 0.00340373 0.0
1 0.00339867 0.0
1 0.00339508 0.0
1 0.00339256 0.0
1 0.00339082 0.0
1 0.00338963 0.0
1 0.00338882 0.0
1 0.00338828 0.0
1 0.00338792 0.0
1 0.00338769 0.0
1 0.00338754 0.0
1 0.00338744 0.0
1 0.00338738 0.0
1 0.00338734 0.0
1 0.00338731 0.0
1 0.0033873 0.0
1 0.00338729 0.0
1 0.00338728 0.0
1 0.00338728 0.0
1 0.00338727 0.0
1 0.00338727 0.0
1 0.00338727 0.0
1 0.00338727 0.0
1 0.00321733 0.0
1 0.00152369 0.0
VECTORS indp double
0 0.5 0
0 1 0
0 0.5 0
0 0 0
0 0 0
0 0 0
0 0 0
0 0 0
0 0 0
0 0 0
0 0 0
0 0 0
0 0 0
0 0 0
0 0 0
0 0 0
0 0 0
0 0 0
0 0 0
0 0 0
0 0 0
0 0 0
0 0 0
0 0 0
0 0 0
0 0 0
0 0 0
0 0 0
0 0 0
0 0 0
0 0 0
0 0 0
